 vasp.6.4.3 19Mar24 (build Jul 08 2025 21:20:34) complex                        
  
 executed on             LinuxIFC date 2025.10.30  12:14:13
 running   32 mpi-ranks, on    1 nodes
 distrk:  each k-point on   32 cores,    1 groups
 distr:  one band on NCORE=   1 cores,   32 groups


--------------------------------------------------------------------------------------------------------


 INCAR:
   ISTART = 1            (Read existing wavefunction, if there)
   LREAL = .FALSE.       (Projection operators: automatic)
   ENCUT = 500        (Cut-off energy for plane wave basis set, in eV)
   PREC = Accurate   (Precision level: Normal or Accurate, set Accurate when perform structure lattice relaxation calculation)
   LWAVE = .FALSE.        (Write WAVECAR or not)
   LCHARG = .FALSE.        (Write CHGCAR or not)
   ADDGRID = .TRUE.        (Increase grid, helps GGA convergence)
   LASPH = .TRUE.        (Give more accurate total energies and band structure calculations)
   SYMPREC = 1E-8
   ISMEAR = 0            (Gaussian smearing, metals:1)
   SIGMA = 0.05         (Smearing value in eV, metals:0.2)
   NELM = 90           (Max electronic SCF steps)
   NELMIN = 6            (Min electronic SCF steps)
   EDIFF = 1E-06        (SCF energy convergence, in eV)
   NSW = 0          (Max ionic steps)
   IBRION = 2            (Algorithm: 0-MD, 1-Quasi-New, 2-CG)
   EDIFFG = -2E-02        (Ionic convergence, eV/AA)
   ISPIN = 2
   MAGMOM = 5.0 5.0 0.0 0.0 0.0 0.0 0.0 0.0
   LDAU = .TRUE.
   LDAUTYPE = 2
   LDAUL = 2 -1
   LDAUU = 4.5 0.0
   LDAUJ = 0.9 0.0
   IVDW = 11

 POTCAR:    PAW_PBE Fe 06Sep2000                  
 POTCAR:    PAW_PBE Cl 06Sep2000                  
 -----------------------------------------------------------------------------
|                                                                             |
|           W    W    AA    RRRRR   N    N  II  N    N   GGGG   !!!           |
|           W    W   A  A   R    R  NN   N  II  NN   N  G    G  !!!           |
|           W    W  A    A  R    R  N N  N  II  N N  N  G       !!!           |
|           W WW W  AAAAAA  RRRRR   N  N N  II  N  N N  G  GGG   !            |
|           WW  WW  A    A  R   R   N   NN  II  N   NN  G    G                |
|           W    W  A    A  R    R  N    N  II  N    N   GGGG   !!!           |
|                                                                             |
|     For optimal performance we recommend to set                             |
|       NCORE = 2 up to number-of-cores-per-socket                            |
|     NCORE specifies how many cores store one orbital (NPAR=cpu/NCORE).      |
|     This setting can greatly improve the performance of VASP for DFT.       |
|     The default, NCORE=1 might be grossly inefficient on modern             |
|     multi-core architectures or massively parallel machines. Do your        |
|     own testing! More info at https://www.vasp.at/wiki/index.php/NCORE      |
|     Unfortunately you need to use the default for GW and RPA                |
|     calculations (for HF NCORE is supported but not extensively tested      |
|     yet).                                                                   |
|                                                                             |
 -----------------------------------------------------------------------------

 POTCAR:    PAW_PBE Fe 06Sep2000                  
   SHA256 =  cd5a22d9368cc8b5cc476bea79732366149640da08ac9009b0e1b7fc627eea28 Fe/POTCAR             
   COPYR  = (c) Copyright 06Sep2000 Georg Kresse                                                    
   COPYR  = This file is part of the software VASP. Any use, copying, and all other rights are regul
   COPYR  = If you do not have a valid VASP license, you may not use, copy or distribute this file. 
   VRHFIN =Fe:  d7 s1                                                                               
   LEXCH  = PE                                                                                      
   EATOM  =   594.3153 eV,   43.6809 Ry                                                             
                                                                                                    
   TITEL  = PAW_PBE Fe 06Sep2000                                                                    
   LULTRA =        F    use ultrasoft PP ?                                                          
   IUNSCR =        1    unscreen: 0-lin 1-nonlin 2-no                                               
   RPACOR =    2.000    partial core radius                                                         
   POMASS =   55.847; ZVAL   =    8.000    mass and valenz                                          
   RCORE  =    2.300    outmost cutoff radius                                                       
   RWIGS  =    2.460; RWIGS  =    1.302    wigner-seitz radius (au A)                               
   ENMAX  =  267.882; ENMIN  =  200.911 eV                                                          
   RCLOC  =    1.701    cutoff for local pot                                                        
   LCOR   =        T    correct aug charges                                                         
   LPAW   =        T    paw PP                                                                      
   EAUG   =  511.368                                                                                
   DEXC   =    0.000                                                                                
   RMAX   =    2.356    core radius for proj-oper                                                   
   RAUG   =    1.300    factor for augmentation sphere                                              
   RDEP   =    2.442    radius for radial grids                                                     
   RDEPT  =    1.890    core radius for aug-charge                                                  
                                                                                                    
   Atomic configuration                                                                             
    9 entries                                                                                       
     n  l   j            E        occ.                                                              
     1  0  0.50     -6993.8440   2.0000                                                             
     2  0  0.50      -814.6047   2.0000                                                             
     2  1  1.50      -693.3689   6.0000                                                             
     3  0  0.50       -89.4732   2.0000                                                             
     3  1  1.50       -55.6373   6.0000                                                             
     3  2  2.50        -3.8151   7.0000                                                             
     4  0  0.50        -4.2551   1.0000                                                             
     4  1  1.50        -3.4015   0.0000                                                             
     4  3  2.50        -1.3606   0.0000                                                             
   Description                                                                                      
     l       E           TYP  RCUT    TYP  RCUT                                                     
     2     -3.8151135     23  2.300                                                                 
     2     -5.1756961     23  2.300                                                                 
     0     -4.2550963     23  2.300                                                                 
     0      7.2035603     23  2.300                                                                 
     1     -2.7211652     23  2.300                                                                 
     1     18.4316424     23  2.300                                                                 
  local pseudopotential read in
  partial core-charges read in
  partial kinetic energy density read in
  atomic valenz-charges read in
  non local Contribution for L=           2  read in
    real space projection operators read in
  non local Contribution for L=           2  read in
    real space projection operators read in
  non local Contribution for L=           0  read in
    real space projection operators read in
  non local Contribution for L=           0  read in
    real space projection operators read in
  non local Contribution for L=           1  read in
    real space projection operators read in
  non local Contribution for L=           1  read in
    real space projection operators read in
    PAW grid and wavefunctions read in
 
   number of l-projection  operators is LMAX  =           6
   number of lm-projection operators is LMMAX =          18
 
 POTCAR:    PAW_PBE Cl 06Sep2000                  
   SHA256 =  9f1b6e6ed4247ac726a768b330d26d7667cc3c95a39ff49c1d064c2d9dcce931 Cl/POTCAR             
   COPYR  = (c) Copyright 06Sep2000 Georg Kresse                                                    
   COPYR  = This file is part of the software VASP. Any use, copying, and all other rights are regul
   COPYR  = If you do not have a valid VASP license, you may not use, copy or distribute this file. 
   VRHFIN =Cl: s2p5                                                                                 
   LEXCH  = PE                                                                                      
   EATOM  =   409.7259 eV,   30.1140 Ry                                                             
                                                                                                    
   TITEL  = PAW_PBE Cl 06Sep2000                                                                    
   LULTRA =        F    use ultrasoft PP ?                                                          
   IUNSCR =        1    unscreen: 0-lin 1-nonlin 2-no                                               
   RPACOR =    1.500    partial core radius                                                         
   POMASS =   35.453; ZVAL   =    7.000    mass and valenz                                          
   RCORE  =    1.900    outmost cutoff radius                                                       
   RWIGS  =    2.100; RWIGS  =    1.111    wigner-seitz radius (au A)                               
   ENMAX  =  262.472; ENMIN  =  196.854 eV                                                          
   ICORE  =        2    local potential                                                             
   LCOR   =        T    correct aug charges                                                         
   LPAW   =        T    paw PP                                                                      
   EAUG   =  356.192                                                                                
   DEXC   =    0.000                                                                                
   RMAX   =    1.945    core radius for proj-oper                                                   
   RAUG   =    1.300    factor for augmentation sphere                                              
   RDEP   =    2.020    radius for radial grids                                                     
   RDEPT  =    1.678    core radius for aug-charge                                                  
                                                                                                    
   Atomic configuration                                                                             
    6 entries                                                                                       
     n  l   j            E        occ.                                                              
     1  0  0.50     -2751.1850   2.0000                                                             
     2  0  0.50      -252.6861   2.0000                                                             
     2  1  1.50      -191.6157   6.0000                                                             
     3  0  0.50       -20.6916   2.0000                                                             
     3  1  0.50        -8.5949   5.0000                                                             
     3  2  1.50        -8.1635   0.0000                                                             
   Description                                                                                      
     l       E           TYP  RCUT    TYP  RCUT                                                     
     0    -20.6915656     23  1.900                                                                 
     0    -22.0521482     23  1.900                                                                 
     1     -8.5948577     23  1.900                                                                 
     1     -5.3847331     23  1.900                                                                 
     2     -8.1634956     23  1.900                                                                 
  local pseudopotential read in
  partial core-charges read in
  partial kinetic energy density read in
  atomic valenz-charges read in
  non local Contribution for L=           0  read in
    real space projection operators read in
  non local Contribution for L=           0  read in
    real space projection operators read in
  non local Contribution for L=           1  read in
    real space projection operators read in
  non local Contribution for L=           1  read in
    real space projection operators read in
    PAW grid and wavefunctions read in
 
   number of l-projection  operators is LMAX  =           4
   number of lm-projection operators is LMMAX =           8
 
  PAW_PBE Fe 06Sep2000                  :
 energy of atom  1       EATOM= -594.3153
 kinetic energy error for atom=    0.0026 (will be added to EATOM!!)
  PAW_PBE Cl 06Sep2000                  :
 energy of atom  2       EATOM= -409.7259
 kinetic energy error for atom=    0.0030 (will be added to EATOM!!)
 
 
 POSCAR: Fe Cl
  positions in direct lattice
  velocities in cartesian coordinates
 IVDW         = 11
 VDW_S6       =    1.0000
 VDW_S8       =    0.7220
 VDW_SR       =    1.2170
 VDW_RADIUS   =   50.2022 A
 VDW_CNRADIUS =   21.1671 A


 exchange-correlation table for PE
   RHO(1)=    0.500       N(1)  =     2000
   RHO(2)=  100.500       N(2)  =     4000
 


--------------------------------------------------------------------------------------------------------


 ion  position               nearest neighbor table
   1  1.000  0.000  0.226-   7 2.41   6 2.41   8 2.41   4 2.42   5 2.42   3 2.42
   2  0.667  0.333  0.226-   4 2.41   3 2.41   5 2.41   7 2.42   8 2.42   6 2.42
   3  0.973  0.667  0.274-   2 2.41   1 2.42
   4  0.333  0.306  0.274-   2 2.41   1 2.42
   5  0.694  0.027  0.274-   2 2.41   1 2.42
   6  0.973  0.306  0.178-   1 2.41   2 2.42
   7  0.694  0.667  0.178-   1 2.41   2 2.42
   8  0.333  0.027  0.178-   1 2.41   2 2.42
 
  Warning from LATTYP: Monoclinic adjustment (A1->A3, A2->A1, A3->A2)!
  LATTYP: Found a base centered orthorhombic cell.
 ALAT       =     6.1818200000
 B/A-ratio  =     1.7320497847
 C/A-ratio  =     4.6673795096
  
  Lattice vectors:
  
 A1 = (   3.0909100000,  -5.3536100000,   0.0000000000)
 A2 = (   3.0909100000,   5.3536100000,   0.0000000000)
 A3 = (   0.0000000000,   0.0000000000,  28.8529000000)


Analysis of symmetry for initial positions (statically):
=====================================================================
 Subroutine PRICEL returns:
 Original cell was already a primitive cell.
 

 Routine SETGRP: Setting up the symmetry group for a 
 base centered orthorhombic supercell.


 Subroutine GETGRP returns: Found  1 space group operations
 (whereof  1 operations were pure point group operations)
 out of a pool of  8 trial point group operations.


The static configuration has the point symmetry C_1 .


Analysis of symmetry for dynamics (positions and initial velocities):
=====================================================================
 Subroutine PRICEL returns:
 Original cell was already a primitive cell.
 

 Routine SETGRP: Setting up the symmetry group for a 
 base centered orthorhombic supercell.


 Subroutine GETGRP returns: Found  1 space group operations
 (whereof  1 operations were pure point group operations)
 out of a pool of  8 trial point group operations.


The dynamic configuration has the point symmetry C_1 .


Analysis of structural, dynamic, and magnetic symmetry:
=====================================================================
 Subroutine PRICEL returns:
 Original cell was already a primitive cell.
 

 Routine SETGRP: Setting up the symmetry group for a 
 base centered orthorhombic supercell.


 Subroutine GETGRP returns: Found  1 space group operations
 (whereof  1 operations were pure point group operations)
 out of a pool of  8 trial point group operations.


The overall configuration has the point symmetry C_1 .


 Subroutine INISYM returns: Found  1 space group operations
 (whereof  1 operations are pure point group operations),
 and found     1 'primitive' translations


----------------------------------------------------------------------------------------

                                     Primitive cell                                     

  volume of cell :     954.8883

  direct lattice vectors                    reciprocal lattice vectors
     6.181820000  0.000000000  0.000000000     0.161764658  0.093394924  0.000000000
    -3.090910000  5.353610000  0.000000000     0.000000000  0.186789848  0.000000000
     0.000000000  0.000000000 28.852900000     0.000000000  0.000000000  0.034658561

  length of vectors
     6.181820000  6.181817262 28.852900000     0.186789766  0.186789848  0.034658561

  position of ions in fractional coordinates (direct lattice)
     0.999998781  0.000001150  0.226132808
     0.666662983  0.333337064  0.226355104
     0.972911636  0.666583200  0.274115950
     0.333416833  0.306328067  0.274115709
     0.693670859  0.027089164  0.274115928
     0.972596150  0.305796432  0.178378141
     0.694202432  0.666799835  0.178378877
     0.333200326  0.027405088  0.178377484

  ion indices of the primitive-cell ions
   primitive index   ion index
                 1           1
                 2           2
                 3           3
                 4           4
                 5           5
                 6           6
                 7           7
                 8           8

----------------------------------------------------------------------------------------

 
 
 KPOINTS: K-Spacing Value to Generate K-Mesh: 0.04

Automatic generation of k-mesh.
 Grid dimensions read from file:
 generate k-points for:   14   14    1

 Generating k-lattice:

  Cartesian coordinates                     Fractional coordinates (reciprocal lattice)
     0.011554618  0.006671066  0.000000000     0.071428571 -0.000000000  0.000000000
     0.000000000  0.013342132  0.000000000     0.000000000  0.071428571  0.000000000
     0.000000000  0.000000000  0.034658561     0.000000000  0.000000000  1.000000000

  Length of vectors
     0.013342126  0.013342132  0.034658561

  Shift w.r.t. Gamma in fractional coordinates (k-lattice)
     0.000000000  0.000000000  0.000000000

 
 Subroutine IBZKPT returns following result:
 ===========================================
 
 Found    100 irreducible k-points:
 
 Following reciprocal coordinates:
            Coordinates               Weight
  0.000000  0.000000  0.000000      1.000000
  0.071429  0.000000  0.000000      2.000000
  0.071429 -0.071429  0.000000      2.000000
  0.142857  0.000000  0.000000      2.000000
  0.142857 -0.142857  0.000000      2.000000
  0.214286  0.000000  0.000000      2.000000
  0.214286 -0.214286  0.000000      2.000000
  0.285714  0.000000  0.000000      2.000000
  0.285714 -0.285714  0.000000      2.000000
  0.357143  0.000000  0.000000      2.000000
  0.357143 -0.357143  0.000000      2.000000
  0.428571  0.000000  0.000000      2.000000
  0.428571 -0.428571  0.000000      2.000000
  0.500000  0.000000  0.000000      1.000000
  0.500000  0.500000  0.000000      1.000000
  0.000000  0.071429  0.000000      2.000000
  0.071429  0.071429  0.000000      2.000000
  0.071429 -0.142857  0.000000      2.000000
  0.142857  0.071429  0.000000      2.000000
  0.142857 -0.214286  0.000000      2.000000
  0.214286  0.071429  0.000000      2.000000
  0.214286 -0.285714  0.000000      2.000000
  0.285714  0.071429  0.000000      2.000000
  0.285714 -0.357143  0.000000      2.000000
  0.357143  0.071429  0.000000      2.000000
  0.357143 -0.428571  0.000000      2.000000
  0.428571  0.071429  0.000000      2.000000
  0.428571  0.500000  0.000000      2.000000
  0.500000  0.071429  0.000000      2.000000
  0.500000  0.428571  0.000000      2.000000
 -0.428571  0.071429  0.000000      2.000000
 -0.428571  0.357143  0.000000      2.000000
 -0.357143  0.071429  0.000000      2.000000
 -0.357143  0.285714  0.000000      2.000000
 -0.285714  0.071429  0.000000      2.000000
 -0.285714  0.214286  0.000000      2.000000
 -0.214286  0.071429  0.000000      2.000000
 -0.214286  0.142857  0.000000      2.000000
 -0.142857  0.071429  0.000000      2.000000
  0.000000  0.142857  0.000000      2.000000
  0.071429  0.142857  0.000000      2.000000
  0.071429 -0.214286  0.000000      2.000000
  0.142857  0.142857  0.000000      2.000000
  0.142857 -0.285714  0.000000      2.000000
  0.214286  0.142857  0.000000      2.000000
  0.214286 -0.357143  0.000000      2.000000
  0.285714  0.142857  0.000000      2.000000
  0.285714 -0.428571  0.000000      2.000000
  0.357143  0.142857  0.000000      2.000000
  0.357143  0.500000  0.000000      2.000000
  0.428571  0.142857  0.000000      2.000000
  0.428571  0.428571  0.000000      2.000000
  0.500000  0.142857  0.000000      2.000000
  0.500000  0.357143  0.000000      2.000000
 -0.428571  0.142857  0.000000      2.000000
 -0.428571  0.285714  0.000000      2.000000
 -0.357143  0.142857  0.000000      2.000000
 -0.357143  0.214286  0.000000      2.000000
 -0.285714  0.142857  0.000000      2.000000
  0.000000  0.214286  0.000000      2.000000
  0.071429  0.214286  0.000000      2.000000
  0.071429 -0.285714  0.000000      2.000000
  0.142857  0.214286  0.000000      2.000000
  0.142857 -0.357143  0.000000      2.000000
  0.214286  0.214286  0.000000      2.000000
  0.214286 -0.428571  0.000000      2.000000
  0.285714  0.214286  0.000000      2.000000
  0.285714  0.500000  0.000000      2.000000
  0.357143  0.214286  0.000000      2.000000
  0.357143  0.428571  0.000000      2.000000
  0.428571  0.214286  0.000000      2.000000
  0.428571  0.357143  0.000000      2.000000
  0.500000  0.214286  0.000000      2.000000
  0.500000  0.285714  0.000000      2.000000
 -0.428571  0.214286  0.000000      2.000000
  0.000000  0.285714  0.000000      2.000000
  0.071429  0.285714  0.000000      2.000000
  0.071429 -0.357143  0.000000      2.000000
  0.142857  0.285714  0.000000      2.000000
  0.142857 -0.428571  0.000000      2.000000
  0.214286  0.285714  0.000000      2.000000
  0.214286  0.500000  0.000000      2.000000
  0.285714  0.285714  0.000000      2.000000
  0.285714  0.428571  0.000000      2.000000
  0.357143  0.285714  0.000000      2.000000
  0.357143  0.357143  0.000000      2.000000
  0.428571  0.285714  0.000000      2.000000
  0.000000  0.357143  0.000000      2.000000
  0.071429  0.357143  0.000000      2.000000
  0.071429 -0.428571  0.000000      2.000000
  0.142857  0.357143  0.000000      2.000000
  0.142857  0.500000  0.000000      2.000000
  0.214286  0.357143  0.000000      2.000000
  0.214286  0.428571  0.000000      2.000000
  0.285714  0.357143  0.000000      2.000000
  0.000000  0.428571  0.000000      2.000000
  0.071429  0.428571  0.000000      2.000000
  0.071429  0.500000  0.000000      2.000000
  0.142857  0.428571  0.000000      2.000000
  0.000000  0.500000  0.000000      1.000000
 
 Following cartesian coordinates:
            Coordinates               Weight
  0.000000  0.000000  0.000000      1.000000
  0.011555  0.006671  0.000000      2.000000
  0.011555 -0.006671  0.000000      2.000000
  0.023109  0.013342  0.000000      2.000000
  0.023109 -0.013342  0.000000      2.000000
  0.034664  0.020013  0.000000      2.000000
  0.034664 -0.020013  0.000000      2.000000
  0.046218  0.026684  0.000000      2.000000
  0.046218 -0.026684  0.000000      2.000000
  0.057773  0.033355  0.000000      2.000000
  0.057773 -0.033355  0.000000      2.000000
  0.069328  0.040026  0.000000      2.000000
  0.069328 -0.040026  0.000000      2.000000
  0.080882  0.046697  0.000000      1.000000
  0.080882  0.140092  0.000000      1.000000
  0.000000  0.013342  0.000000      2.000000
  0.011555  0.020013  0.000000      2.000000
  0.011555 -0.020013  0.000000      2.000000
  0.023109  0.026684  0.000000      2.000000
  0.023109 -0.026684  0.000000      2.000000
  0.034664  0.033355  0.000000      2.000000
  0.034664 -0.033355  0.000000      2.000000
  0.046218  0.040026  0.000000      2.000000
  0.046218 -0.040026  0.000000      2.000000
  0.057773  0.046697  0.000000      2.000000
  0.057773 -0.046697  0.000000      2.000000
  0.069328  0.053369  0.000000      2.000000
  0.069328  0.133421  0.000000      2.000000
  0.080882  0.060040  0.000000      2.000000
  0.080882  0.126750  0.000000      2.000000
 -0.069328 -0.026684  0.000000      2.000000
 -0.069328  0.026684  0.000000      2.000000
 -0.057773 -0.020013  0.000000      2.000000
 -0.057773  0.020013  0.000000      2.000000
 -0.046218 -0.013342  0.000000      2.000000
 -0.046218  0.013342  0.000000      2.000000
 -0.034664 -0.006671  0.000000      2.000000
 -0.034664  0.006671  0.000000      2.000000
 -0.023109 -0.000000  0.000000      2.000000
  0.000000  0.026684  0.000000      2.000000
  0.011555  0.033355  0.000000      2.000000
  0.011555 -0.033355  0.000000      2.000000
  0.023109  0.040026  0.000000      2.000000
  0.023109 -0.040026  0.000000      2.000000
  0.034664  0.046697  0.000000      2.000000
  0.034664 -0.046697  0.000000      2.000000
  0.046218  0.053369  0.000000      2.000000
  0.046218 -0.053369  0.000000      2.000000
  0.057773  0.060040  0.000000      2.000000
  0.057773  0.126750  0.000000      2.000000
  0.069328  0.066711  0.000000      2.000000
  0.069328  0.120079  0.000000      2.000000
  0.080882  0.073382  0.000000      2.000000
  0.080882  0.113408  0.000000      2.000000
 -0.069328 -0.013342  0.000000      2.000000
 -0.069328  0.013342  0.000000      2.000000
 -0.057773 -0.006671  0.000000      2.000000
 -0.057773  0.006671  0.000000      2.000000
 -0.046218  0.000000  0.000000      2.000000
  0.000000  0.040026  0.000000      2.000000
  0.011555  0.046697  0.000000      2.000000
  0.011555 -0.046697  0.000000      2.000000
  0.023109  0.053369  0.000000      2.000000
  0.023109 -0.053369  0.000000      2.000000
  0.034664  0.060040  0.000000      2.000000
  0.034664 -0.060040  0.000000      2.000000
  0.046218  0.066711  0.000000      2.000000
  0.046218  0.120079  0.000000      2.000000
  0.057773  0.073382  0.000000      2.000000
  0.057773  0.113408  0.000000      2.000000
  0.069328  0.080053  0.000000      2.000000
  0.069328  0.106737  0.000000      2.000000
  0.080882  0.086724  0.000000      2.000000
  0.080882  0.100066  0.000000      2.000000
 -0.069328  0.000000  0.000000      2.000000
  0.000000  0.053369  0.000000      2.000000
  0.011555  0.060040  0.000000      2.000000
  0.011555 -0.060040  0.000000      2.000000
  0.023109  0.066711  0.000000      2.000000
  0.023109 -0.066711  0.000000      2.000000
  0.034664  0.073382  0.000000      2.000000
  0.034664  0.113408  0.000000      2.000000
  0.046218  0.080053  0.000000      2.000000
  0.046218  0.106737  0.000000      2.000000
  0.057773  0.086724  0.000000      2.000000
  0.057773  0.100066  0.000000      2.000000
  0.069328  0.093395  0.000000      2.000000
  0.000000  0.066711  0.000000      2.000000
  0.011555  0.073382  0.000000      2.000000
  0.011555 -0.073382  0.000000      2.000000
  0.023109  0.080053  0.000000      2.000000
  0.023109  0.106737  0.000000      2.000000
  0.034664  0.086724  0.000000      2.000000
  0.034664  0.100066  0.000000      2.000000
  0.046218  0.093395  0.000000      2.000000
  0.000000  0.080053  0.000000      2.000000
  0.011555  0.086724  0.000000      2.000000
  0.011555  0.100066  0.000000      2.000000
  0.023109  0.093395  0.000000      2.000000
  0.000000  0.093395  0.000000      1.000000
 


--------------------------------------------------------------------------------------------------------




 Dimension of arrays:
   k-points           NKPTS =    100   k-points in BZ     NKDIM =    100   number of bands    NBANDS=     64
   number of dos      NEDOS =    301   number of ions     NIONS =      8
   non local maximal  LDIM  =      6   non local SUM 2l+1 LMDIM =     18
   total plane-waves  NPLWV = 483840
   max r-space proj   IRMAX =      1   max aug-charges    IRDMAX= 144579
   dimension x,y,z NGX =    48 NGY =   48 NGZ =  210
   dimension x,y,z NGXF=    96 NGYF=   96 NGZF=  420
   support grid    NGXF=   192 NGYF=  192 NGZF=  840
   ions per type =               2   6
   NGX,Y,Z   is equivalent  to a cutoff of  12.91, 12.91, 12.10 a.u.
   NGXF,Y,Z  is equivalent  to a cutoff of  25.82, 25.82, 24.20 a.u.

 SYSTEM =  unknown system                          
 POSCAR =  Fe Cl                                   

 Startparameter for this run:
   NWRITE =      2    write-flag & timer
   PREC   = accura    normal or accurate (medium, high low for compatibility)
   ISTART =      0    job   : 0-new  1-cont  2-samecut
   ICHARG =      2    charge: 1-file 2-atom 10-const
   ISPIN  =      2    spin polarized calculation?
   LNONCOLLINEAR =      F non collinear calculations
   LSORBIT =      F    spin-orbit coupling
   INIWAV =      1    electr: 0-lowe 1-rand  2-diag
   LASPH  =      T    aspherical Exc in radial PAW
 Electronic Relaxation 1
   ENCUT  =  500.0 eV  36.75 Ry    6.06 a.u.  11.27 11.27 52.61*2*pi/ulx,y,z
   ENINI  =  500.0     initial cutoff
   ENAUG  =  511.4 eV  augmentation charge cutoff
   NELM   =     90;   NELMIN=  6; NELMDL=  0     # of ELM steps 
   EDIFF  = 0.1E-05   stopping-criterion for ELM
   LREAL  =      F    real-space projection
   NLSPLINE    = F    spline interpolate recip. space projectors
   LCOMPAT=      F    compatible to vasp.4.4
   GGA_COMPAT  = T    GGA compatible to vasp.4.4-vasp.4.6
   LMAXPAW     = -100 max onsite density
   LMAXMIX     =    2 max onsite mixed and CHGCAR
   VOSKOWN=      0    Vosko Wilk Nusair interpolation
   ROPT   =    0.00000   0.00000
 Ionic relaxation
   EDIFFG = -.2E-01   stopping-criterion for IOM
   NSW    =      0    number of steps for IOM
   NBLOCK =      1;   KBLOCK =      1    inner block; outer block 
   IBRION =     -1    ionic relax: 0-MD 1-quasi-New 2-CG
   NFREE  =      1    steps in history (QN), initial steepest desc. (CG)
   ISIF   =      2    stress and relaxation
   IWAVPR =     10    prediction:  0-non 1-charg 2-wave 3-comb
   ISYM   =      2    0-nonsym 1-usesym 2-fastsym
   LCORR  =      T    Harris-Foulkes like correction to forces

   POTIM  = 0.5000    time-step for ionic-motion
   TEIN   =    0.0    initial temperature
   TEBEG  =    0.0;   TEEND  =   0.0 temperature during run
   SMASS  =  -3.00    Nose mass-parameter (am)
   estimated Nose-frequenzy (Omega)   =  0.10E-29 period in steps = 0.13E+47 mass=  -0.873E-27a.u.
   SCALEE = 1.0000    scale energy and forces
   NPACO  =    256;   APACO  = 10.0  distance and # of slots for P.C.
   PSTRESS=    0.0 pullay stress

  Mass of Ions in am
   POMASS =  55.85 35.45
  Ionic Valenz
   ZVAL   =   8.00  7.00
  Atomic Wigner-Seitz radii
   RWIGS  =  -1.00 -1.00
  virtual crystal weights 
   VCA    =   1.00  1.00
   NELECT =      58.0000    total number of electrons
   NUPDOWN=      -1.0000    fix difference up-down

 DOS related values:
   EMIN   =  10.00;   EMAX   =-10.00  energy-range for DOS
   EFERMI =   0.00;   METHOD = LEGACY      
   ISMEAR =     0;   SIGMA  =   0.05  broadening in eV -4-tet -1-fermi 0-gaus

 Electronic relaxation 2 (details)
   IALGO  =     38    algorithm
   LDIAG  =      T    sub-space diagonalisation (order eigenvalues)
   LSUBROT=      F    optimize rotation matrix (better conditioning)
   TURBO    =      0    0=normal 1=particle mesh
   IRESTART =      0    0=no restart 2=restart with 2 vectors
   NREBOOT  =      0    no. of reboots
   NMIN     =      0    reboot dimension
   EREF     =   0.00    reference energy to select bands
   IMIX   =      4    mixing-type and parameters
     AMIX     =   0.40;   BMIX     =  1.00
     AMIX_MAG =   1.60;   BMIX_MAG =  1.00
     AMIN     =   0.10
     WC   =   100.;   INIMIX=   1;  MIXPRE=   1;  MAXMIX= -45

 Intra band minimization:
   WEIMIN = 0.0000     energy-eigenvalue tresh-hold
   EBREAK =  0.39E-08  absolut break condition
   DEPER  =   0.30     relativ break condition  

   TIME   =   0.40     timestep for ELM

  volume/ion in A,a.u.               =     119.36       805.49
  Fermi-wavevector in a.u.,A,eV,Ry     =   0.643527  1.216089  5.634537  0.414127
  Thomas-Fermi vector in A             =   1.710556
 
 Write flags
   LWAVE        =      F    write WAVECAR
   LDOWNSAMPLE  =      F    k-point downsampling of WAVECAR
   LCHARG       =      F    write CHGCAR
   LVTOT        =      F    write LOCPOT, total local potential
   LVHAR        =      F    write LOCPOT, Hartree potential only
   WRT_POTENTIAL= false  ! write potential to hdf5 file
   LELF         =      F    write electronic localiz. function (ELF)
   LORBIT       =      0    0 simple, 1 ext, 2 COOP (PROOUT), +10 PAW based schemes


 Dipole corrections
   LMONO      =      F    monopole corrections only (constant potential shift)
   LDIPOL     =      F    correct potential (dipole corrections)
   IDIPOL     =      0    1-x, 2-y, 3-z, 4-all directions 
   EPSILON    =  1.0000000 bulk dielectric constant
   LVACPOTAV  =      F  vacuum potentials using an averaging scheme for the charge density
   VACPOTFLAT =  0.1000000 required flatness to determine vacuum potential
 LDA+U is selected, type is set to LDAUTYPE =  2
   angular momentum for each species LDAUL =     2   -1
   U (eV)           for each species LDAUU =   4.5  0.0
   J (eV)           for each species LDAUJ =   0.9  0.0
 Exchange correlation treatment:
   GGA     = PE    functional components
   XC_C    = 1    coefficients multiplying the functional components
   LIBXC   =     F    Libxc                    
   VOSKOWN =     0    Vosko Wilk Nusair interpolation
   LHFCALC =     F    Hartree Fock is set to
   LHFONE  =     F    Hartree Fock one center treatment
   AEXX    =    0.0000 exact exchange contribution

 Parameters of functionals:
   PE:
     No parameter
 
 Van der Waals corrections
   IVDW    =    11    specifies the selected vdW correction

 Linear response parameters
   LEPSILON=     F    determine dielectric tensor
   LRPA    =     F    only Hartree local field effects (RPA)
   LNABLA  =     F    use nabla operator in PAW spheres
   LVEL    =     F    velocity operator in full k-point grid
   CSHIFT  =0.1000    complex shift for real part using Kramers Kronig
   OMEGAMAX=  -1.0    maximum frequency
   DEG_THRESHOLD= 0.2000000E-02 threshold for treating states as degnerate
   RTIME   =   -0.100 relaxation time in fs
  (WPLASMAI=    0.000 imaginary part of plasma frequency in eV, 0.658/RTIME)
   DFIELD  = 0.0000000 0.0000000 0.0000000 field for delta impulse in time
 
  Optional k-point grid parameters
   LKPOINTS_OPT  =     F    use optional k-point grid
   KPOINTS_OPT_MODE=     1    mode for optional k-point grid
 
 Orbital magnetization related:
   ORBITALMAG=     F  switch on orbital magnetization
   LCHIMAG   =     F  perturbation theory with respect to B field
   DQ        =  0.001000  dq finite difference perturbation B field
   LLRAUG    =     F  two centre corrections for induced B field
   LBONE     =     F  B-component reconstruction in AE one-centre
   LVGVCALC  =     T  calculate vGv susceptibility
   LVGVAPPL  =     F  apply vGv susceptibility instead of pGv for G=0

 Random number generation:
   RANDOM_GENERATOR = DEFAULT
   PCG_SEED         = not used


--------------------------------------------------------------------------------------------------------


 Static calculation
 charge density and potential will be updated during run
 spin polarized calculation
 Variant of blocked Davidson
 Davidson routine will perform the subspace rotation
 perform sub-space diagonalisation
    after iterative eigenvector-optimisation
 modified Broyden-mixing scheme, WC =      100.0
 initial mixing is a Kerker type mixing with AMIX =  0.4000 and BMIX =      1.0000
 Hartree-type preconditioning will be used
 using additional bands           35
 reciprocal scheme for non local part
 use partial core corrections
 calculate Harris-corrections to forces 
   (improved forces if not selfconsistent)
 use gradient corrections 
 use of overlap-Matrix (Vanderbilt PP)
 Gauss-broadening in eV      SIGMA  =   0.05


--------------------------------------------------------------------------------------------------------


  energy-cutoff  :      500.00
  volume of cell :      954.89
      direct lattice vectors                 reciprocal lattice vectors
     6.181820000  0.000000000  0.000000000     0.161764658  0.093394924  0.000000000
    -3.090910000  5.353610000  0.000000000     0.000000000  0.186789848  0.000000000
     0.000000000  0.000000000 28.852900000     0.000000000  0.000000000  0.034658561

  length of vectors
     6.181820000  6.181817262 28.852900000     0.186789766  0.186789848  0.034658561


 
 k-points in units of 2pi/SCALE and weight: K-Spacing Value to Generate K-Mesh: 0.04
   0.00000000  0.00000000  0.00000000       0.005
   0.01155462  0.00667107  0.00000000       0.010
   0.01155462 -0.00667107  0.00000000       0.010
   0.02310924  0.01334213  0.00000000       0.010
   0.02310924 -0.01334213  0.00000000       0.010
   0.03466386  0.02001320  0.00000000       0.010
   0.03466386 -0.02001320  0.00000000       0.010
   0.04621847  0.02668426  0.00000000       0.010
   0.04621847 -0.02668426  0.00000000       0.010
   0.05777309  0.03335533  0.00000000       0.010
   0.05777309 -0.03335533  0.00000000       0.010
   0.06932771  0.04002640  0.00000000       0.010
   0.06932771 -0.04002640  0.00000000       0.010
   0.08088233  0.04669746  0.00000000       0.005
   0.08088233  0.14009239  0.00000000       0.005
   0.00000000  0.01334213  0.00000000       0.010
   0.01155462  0.02001320  0.00000000       0.010
   0.01155462 -0.02001320  0.00000000       0.010
   0.02310924  0.02668426  0.00000000       0.010
   0.02310924 -0.02668426  0.00000000       0.010
   0.03466386  0.03335533  0.00000000       0.010
   0.03466386 -0.03335533  0.00000000       0.010
   0.04621847  0.04002640  0.00000000       0.010
   0.04621847 -0.04002640  0.00000000       0.010
   0.05777309  0.04669746  0.00000000       0.010
   0.05777309 -0.04669746  0.00000000       0.010
   0.06932771  0.05336853  0.00000000       0.010
   0.06932771  0.13342132  0.00000000       0.010
   0.08088233  0.06003959  0.00000000       0.010
   0.08088233  0.12675025  0.00000000       0.010
  -0.06932771 -0.02668426  0.00000000       0.010
  -0.06932771  0.02668426  0.00000000       0.010
  -0.05777309 -0.02001320  0.00000000       0.010
  -0.05777309  0.02001320  0.00000000       0.010
  -0.04621847 -0.01334213  0.00000000       0.010
  -0.04621847  0.01334213  0.00000000       0.010
  -0.03466386 -0.00667107  0.00000000       0.010
  -0.03466386  0.00667107  0.00000000       0.010
  -0.02310924 -0.00000000  0.00000000       0.010
   0.00000000  0.02668426  0.00000000       0.010
   0.01155462  0.03335533  0.00000000       0.010
   0.01155462 -0.03335533  0.00000000       0.010
   0.02310924  0.04002640  0.00000000       0.010
   0.02310924 -0.04002640  0.00000000       0.010
   0.03466386  0.04669746  0.00000000       0.010
   0.03466386 -0.04669746  0.00000000       0.010
   0.04621847  0.05336853  0.00000000       0.010
   0.04621847 -0.05336853  0.00000000       0.010
   0.05777309  0.06003959  0.00000000       0.010
   0.05777309  0.12675025  0.00000000       0.010
   0.06932771  0.06671066  0.00000000       0.010
   0.06932771  0.12007919  0.00000000       0.010
   0.08088233  0.07338173  0.00000000       0.010
   0.08088233  0.11340812  0.00000000       0.010
  -0.06932771 -0.01334213  0.00000000       0.010
  -0.06932771  0.01334213  0.00000000       0.010
  -0.05777309 -0.00667107  0.00000000       0.010
  -0.05777309  0.00667107  0.00000000       0.010
  -0.04621847  0.00000000  0.00000000       0.010
   0.00000000  0.04002640  0.00000000       0.010
   0.01155462  0.04669746  0.00000000       0.010
   0.01155462 -0.04669746  0.00000000       0.010
   0.02310924  0.05336853  0.00000000       0.010
   0.02310924 -0.05336853  0.00000000       0.010
   0.03466386  0.06003959  0.00000000       0.010
   0.03466386 -0.06003959  0.00000000       0.010
   0.04621847  0.06671066  0.00000000       0.010
   0.04621847  0.12007919  0.00000000       0.010
   0.05777309  0.07338173  0.00000000       0.010
   0.05777309  0.11340812  0.00000000       0.010
   0.06932771  0.08005279  0.00000000       0.010
   0.06932771  0.10673706  0.00000000       0.010
   0.08088233  0.08672386  0.00000000       0.010
   0.08088233  0.10006599  0.00000000       0.010
  -0.06932771  0.00000000  0.00000000       0.010
   0.00000000  0.05336853  0.00000000       0.010
   0.01155462  0.06003959  0.00000000       0.010
   0.01155462 -0.06003959  0.00000000       0.010
   0.02310924  0.06671066  0.00000000       0.010
   0.02310924 -0.06671066  0.00000000       0.010
   0.03466386  0.07338173  0.00000000       0.010
   0.03466386  0.11340812  0.00000000       0.010
   0.04621847  0.08005279  0.00000000       0.010
   0.04621847  0.10673706  0.00000000       0.010
   0.05777309  0.08672386  0.00000000       0.010
   0.05777309  0.10006599  0.00000000       0.010
   0.06932771  0.09339492  0.00000000       0.010
   0.00000000  0.06671066  0.00000000       0.010
   0.01155462  0.07338173  0.00000000       0.010
   0.01155462 -0.07338173  0.00000000       0.010
   0.02310924  0.08005279  0.00000000       0.010
   0.02310924  0.10673706  0.00000000       0.010
   0.03466386  0.08672386  0.00000000       0.010
   0.03466386  0.10006599  0.00000000       0.010
   0.04621847  0.09339492  0.00000000       0.010
   0.00000000  0.08005279  0.00000000       0.010
   0.01155462  0.08672386  0.00000000       0.010
   0.01155462  0.10006599  0.00000000       0.010
   0.02310924  0.09339492  0.00000000       0.010
   0.00000000  0.09339492  0.00000000       0.005
 
 k-points in reciprocal lattice and weights: K-Spacing Value to Generate K-Mesh: 0.04
   0.00000000  0.00000000  0.00000000       0.005
   0.07142857  0.00000000  0.00000000       0.010
   0.07142857 -0.07142857  0.00000000       0.010
   0.14285714  0.00000000  0.00000000       0.010
   0.14285714 -0.14285714  0.00000000       0.010
   0.21428571  0.00000000  0.00000000       0.010
   0.21428571 -0.21428571  0.00000000       0.010
   0.28571429  0.00000000  0.00000000       0.010
   0.28571429 -0.28571429  0.00000000       0.010
   0.35714286  0.00000000  0.00000000       0.010
   0.35714286 -0.35714286  0.00000000       0.010
   0.42857143  0.00000000  0.00000000       0.010
   0.42857143 -0.42857143  0.00000000       0.010
   0.50000000  0.00000000  0.00000000       0.005
   0.50000000  0.50000000  0.00000000       0.005
   0.00000000  0.07142857  0.00000000       0.010
   0.07142857  0.07142857  0.00000000       0.010
   0.07142857 -0.14285714  0.00000000       0.010
   0.14285714  0.07142857  0.00000000       0.010
   0.14285714 -0.21428571  0.00000000       0.010
   0.21428571  0.07142857  0.00000000       0.010
   0.21428571 -0.28571429  0.00000000       0.010
   0.28571429  0.07142857  0.00000000       0.010
   0.28571429 -0.35714286  0.00000000       0.010
   0.35714286  0.07142857  0.00000000       0.010
   0.35714286 -0.42857143  0.00000000       0.010
   0.42857143  0.07142857  0.00000000       0.010
   0.42857143  0.50000000  0.00000000       0.010
   0.50000000  0.07142857  0.00000000       0.010
   0.50000000  0.42857143  0.00000000       0.010
  -0.42857143  0.07142857  0.00000000       0.010
  -0.42857143  0.35714286  0.00000000       0.010
  -0.35714286  0.07142857  0.00000000       0.010
  -0.35714286  0.28571429  0.00000000       0.010
  -0.28571429  0.07142857  0.00000000       0.010
  -0.28571429  0.21428571  0.00000000       0.010
  -0.21428571  0.07142857  0.00000000       0.010
  -0.21428571  0.14285714  0.00000000       0.010
  -0.14285714  0.07142857  0.00000000       0.010
   0.00000000  0.14285714  0.00000000       0.010
   0.07142857  0.14285714  0.00000000       0.010
   0.07142857 -0.21428571  0.00000000       0.010
   0.14285714  0.14285714  0.00000000       0.010
   0.14285714 -0.28571429  0.00000000       0.010
   0.21428571  0.14285714  0.00000000       0.010
   0.21428571 -0.35714286  0.00000000       0.010
   0.28571429  0.14285714  0.00000000       0.010
   0.28571429 -0.42857143  0.00000000       0.010
   0.35714286  0.14285714  0.00000000       0.010
   0.35714286  0.50000000  0.00000000       0.010
   0.42857143  0.14285714  0.00000000       0.010
   0.42857143  0.42857143  0.00000000       0.010
   0.50000000  0.14285714  0.00000000       0.010
   0.50000000  0.35714286  0.00000000       0.010
  -0.42857143  0.14285714  0.00000000       0.010
  -0.42857143  0.28571429  0.00000000       0.010
  -0.35714286  0.14285714  0.00000000       0.010
  -0.35714286  0.21428571  0.00000000       0.010
  -0.28571429  0.14285714  0.00000000       0.010
   0.00000000  0.21428571  0.00000000       0.010
   0.07142857  0.21428571  0.00000000       0.010
   0.07142857 -0.28571429  0.00000000       0.010
   0.14285714  0.21428571  0.00000000       0.010
   0.14285714 -0.35714286  0.00000000       0.010
   0.21428571  0.21428571  0.00000000       0.010
   0.21428571 -0.42857143  0.00000000       0.010
   0.28571429  0.21428571  0.00000000       0.010
   0.28571429  0.50000000  0.00000000       0.010
   0.35714286  0.21428571  0.00000000       0.010
   0.35714286  0.42857143  0.00000000       0.010
   0.42857143  0.21428571  0.00000000       0.010
   0.42857143  0.35714286  0.00000000       0.010
   0.50000000  0.21428571  0.00000000       0.010
   0.50000000  0.28571429  0.00000000       0.010
  -0.42857143  0.21428571  0.00000000       0.010
   0.00000000  0.28571429  0.00000000       0.010
   0.07142857  0.28571429  0.00000000       0.010
   0.07142857 -0.35714286  0.00000000       0.010
   0.14285714  0.28571429  0.00000000       0.010
   0.14285714 -0.42857143  0.00000000       0.010
   0.21428571  0.28571429  0.00000000       0.010
   0.21428571  0.50000000  0.00000000       0.010
   0.28571429  0.28571429  0.00000000       0.010
   0.28571429  0.42857143  0.00000000       0.010
   0.35714286  0.28571429  0.00000000       0.010
   0.35714286  0.35714286  0.00000000       0.010
   0.42857143  0.28571429  0.00000000       0.010
   0.00000000  0.35714286  0.00000000       0.010
   0.07142857  0.35714286  0.00000000       0.010
   0.07142857 -0.42857143  0.00000000       0.010
   0.14285714  0.35714286  0.00000000       0.010
   0.14285714  0.50000000  0.00000000       0.010
   0.21428571  0.35714286  0.00000000       0.010
   0.21428571  0.42857143  0.00000000       0.010
   0.28571429  0.35714286  0.00000000       0.010
   0.00000000  0.42857143  0.00000000       0.010
   0.07142857  0.42857143  0.00000000       0.010
   0.07142857  0.50000000  0.00000000       0.010
   0.14285714  0.42857143  0.00000000       0.010
   0.00000000  0.50000000  0.00000000       0.005
 
 position of ions in fractional coordinates (direct lattice) 
   0.99999878  0.00000115  0.22613281
   0.66666298  0.33333706  0.22635510
   0.97291164  0.66658320  0.27411595
   0.33341683  0.30632807  0.27411571
   0.69367086  0.02708916  0.27411593
   0.97259615  0.30579643  0.17837814
   0.69420243  0.66679984  0.17837888
   0.33320033  0.02740509  0.17837748
 
 position of ions in cartesian coordinates  (Angst):
   6.18180891  0.00000615  6.52458730
   3.09087570  1.78455664  6.53100117
   3.95401593  3.56862648  7.90904008
   1.11429036  1.63996100  7.90903315
   4.20441822  0.14502482  7.90903945
   5.06722508  1.63711484  5.14672665
   2.23041620  3.56978627  5.14674789
   1.97507778  0.14671616  5.14670772
 


--------------------------------------------------------------------------------------------------------


 k-point     1 :   0.0000 0.0000 0.0000  plane waves:   24345
 k-point     2 :   0.0714 0.0000 0.0000  plane waves:   24307
 k-point     3 :   0.0714-0.0714 0.0000  plane waves:   24307
 k-point     4 :   0.1429 0.0000 0.0000  plane waves:   24257
 k-point     5 :   0.1429-0.1429 0.0000  plane waves:   24257
 k-point     6 :   0.2143 0.0000 0.0000  plane waves:   24251
 k-point     7 :   0.2143-0.2143 0.0000  plane waves:   24251
 k-point     8 :   0.2857 0.0000 0.0000  plane waves:   24248
 k-point     9 :   0.2857-0.2857 0.0000  plane waves:   24248
 k-point    10 :   0.3571 0.0000 0.0000  plane waves:   24230
 k-point    11 :   0.3571-0.3571 0.0000  plane waves:   24230
 k-point    12 :   0.4286 0.0000 0.0000  plane waves:   24210
 k-point    13 :   0.4286-0.4286 0.0000  plane waves:   24210
 k-point    14 :   0.5000 0.0000 0.0000  plane waves:   24244
 k-point    15 :   0.5000 0.5000 0.0000  plane waves:   24244
 k-point    16 :   0.0000 0.0714 0.0000  plane waves:   24307
 k-point    17 :   0.0714 0.0714 0.0000  plane waves:   24251
 k-point    18 :   0.0714-0.1429 0.0000  plane waves:   24251
 k-point    19 :   0.1429 0.0714 0.0000  plane waves:   24246
 k-point    20 :   0.1429-0.2143 0.0000  plane waves:   24246
 k-point    21 :   0.2143 0.0714 0.0000  plane waves:   24223
 k-point    22 :   0.2143-0.2857 0.0000  plane waves:   24223
 k-point    23 :   0.2857 0.0714 0.0000  plane waves:   24238
 k-point    24 :   0.2857-0.3571 0.0000  plane waves:   24238
 k-point    25 :   0.3571 0.0714 0.0000  plane waves:   24216
 k-point    26 :   0.3571-0.4286 0.0000  plane waves:   24216
 k-point    27 :   0.4286 0.0714 0.0000  plane waves:   24258
 k-point    28 :   0.4286 0.5000 0.0000  plane waves:   24258
 k-point    29 :   0.5000 0.0714 0.0000  plane waves:   24258
 k-point    30 :   0.5000 0.4286 0.0000  plane waves:   24258
 k-point    31 :  -0.4286 0.0714 0.0000  plane waves:   24216
 k-point    32 :  -0.4286 0.3571 0.0000  plane waves:   24216
 k-point    33 :  -0.3571 0.0714 0.0000  plane waves:   24238
 k-point    34 :  -0.3571 0.2857 0.0000  plane waves:   24238
 k-point    35 :  -0.2857 0.0714 0.0000  plane waves:   24223
 k-point    36 :  -0.2857 0.2143 0.0000  plane waves:   24223
 k-point    37 :  -0.2143 0.0714 0.0000  plane waves:   24246
 k-point    38 :  -0.2143 0.1429 0.0000  plane waves:   24246
 k-point    39 :  -0.1429 0.0714 0.0000  plane waves:   24251
 k-point    40 :   0.0000 0.1429 0.0000  plane waves:   24257
 k-point    41 :   0.0714 0.1429 0.0000  plane waves:   24246
 k-point    42 :   0.0714-0.2143 0.0000  plane waves:   24246
 k-point    43 :   0.1429 0.1429 0.0000  plane waves:   24215
 k-point    44 :   0.1429-0.2857 0.0000  plane waves:   24215
 k-point    45 :   0.2143 0.1429 0.0000  plane waves:   24239
 k-point    46 :   0.2143-0.3571 0.0000  plane waves:   24239
 k-point    47 :   0.2857 0.1429 0.0000  plane waves:   24241
 k-point    48 :   0.2857-0.4286 0.0000  plane waves:   24241
 k-point    49 :   0.3571 0.1429 0.0000  plane waves:   24261
 k-point    50 :   0.3571 0.5000 0.0000  plane waves:   24261
 k-point    51 :   0.4286 0.1429 0.0000  plane waves:   24264
 k-point    52 :   0.4286 0.4286 0.0000  plane waves:   24264
 k-point    53 :   0.5000 0.1429 0.0000  plane waves:   24261
 k-point    54 :   0.5000 0.3571 0.0000  plane waves:   24261
 k-point    55 :  -0.4286 0.1429 0.0000  plane waves:   24241
 k-point    56 :  -0.4286 0.2857 0.0000  plane waves:   24241
 k-point    57 :  -0.3571 0.1429 0.0000  plane waves:   24239
 k-point    58 :  -0.3571 0.2143 0.0000  plane waves:   24239
 k-point    59 :  -0.2857 0.1429 0.0000  plane waves:   24215
 k-point    60 :   0.0000 0.2143 0.0000  plane waves:   24251
 k-point    61 :   0.0714 0.2143 0.0000  plane waves:   24223
 k-point    62 :   0.0714-0.2857 0.0000  plane waves:   24223
 k-point    63 :   0.1429 0.2143 0.0000  plane waves:   24239
 k-point    64 :   0.1429-0.3571 0.0000  plane waves:   24239
 k-point    65 :   0.2143 0.2143 0.0000  plane waves:   24221
 k-point    66 :   0.2143-0.4286 0.0000  plane waves:   24221
 k-point    67 :   0.2857 0.2143 0.0000  plane waves:   24224
 k-point    68 :   0.2857 0.5000 0.0000  plane waves:   24224
 k-point    69 :   0.3571 0.2143 0.0000  plane waves:   24263
 k-point    70 :   0.3571 0.4286 0.0000  plane waves:   24263
 k-point    71 :   0.4286 0.2143 0.0000  plane waves:   24263
 k-point    72 :   0.4286 0.3571 0.0000  plane waves:   24263
 k-point    73 :   0.5000 0.2143 0.0000  plane waves:   24224
 k-point    74 :   0.5000 0.2857 0.0000  plane waves:   24224
 k-point    75 :  -0.4286 0.2143 0.0000  plane waves:   24221
 k-point    76 :   0.0000 0.2857 0.0000  plane waves:   24248
 k-point    77 :   0.0714 0.2857 0.0000  plane waves:   24238
 k-point    78 :   0.0714-0.3571 0.0000  plane waves:   24238
 k-point    79 :   0.1429 0.2857 0.0000  plane waves:   24241
 k-point    80 :   0.1429-0.4286 0.0000  plane waves:   24241
 k-point    81 :   0.2143 0.2857 0.0000  plane waves:   24224
 k-point    82 :   0.2143 0.5000 0.0000  plane waves:   24224
 k-point    83 :   0.2857 0.2857 0.0000  plane waves:   24239
 k-point    84 :   0.2857 0.4286 0.0000  plane waves:   24239
 k-point    85 :   0.3571 0.2857 0.0000  plane waves:   24253
 k-point    86 :   0.3571 0.3571 0.0000  plane waves:   24253
 k-point    87 :   0.4286 0.2857 0.0000  plane waves:   24239
 k-point    88 :   0.0000 0.3571 0.0000  plane waves:   24230
 k-point    89 :   0.0714 0.3571 0.0000  plane waves:   24216
 k-point    90 :   0.0714-0.4286 0.0000  plane waves:   24216
 k-point    91 :   0.1429 0.3571 0.0000  plane waves:   24261
 k-point    92 :   0.1429 0.5000 0.0000  plane waves:   24261
 k-point    93 :   0.2143 0.3571 0.0000  plane waves:   24263
 k-point    94 :   0.2143 0.4286 0.0000  plane waves:   24263
 k-point    95 :   0.2857 0.3571 0.0000  plane waves:   24253
 k-point    96 :   0.0000 0.4286 0.0000  plane waves:   24210
 k-point    97 :   0.0714 0.4286 0.0000  plane waves:   24258
 k-point    98 :   0.0714 0.5000 0.0000  plane waves:   24258
 k-point    99 :   0.1429 0.4286 0.0000  plane waves:   24264
 k-point   100 :   0.0000 0.5000 0.0000  plane waves:   24244

 maximum and minimum number of plane-waves per node :     24345    24210

 maximum number of plane-waves:     24345
 maximum index in each direction: 
   IXMAX=   11   IYMAX=   11   IZMAX=   52
   IXMIN=  -11   IYMIN=  -11   IZMIN=  -52


 serial   3D FFT for wavefunctions
 parallel 3D FFT for charge:
    minimum data exchange during FFTs selected (reduces bandwidth)


 total amount of memory used by VASP MPI-rank0   959286. kBytes
=======================================================================

   base      :      30000. kBytes
   nonl-proj :     704454. kBytes
   fftplans  :      19623. kBytes
   grid      :      48494. kBytes
   one-center:        248. kBytes
   wavefun   :     156467. kBytes
 
     INWAV:  cpu time      0.0000: real time      0.0003
 Broyden mixing: mesh for mixing (old mesh)
   NGX = 23   NGY = 23   NGZ =105
  (NGX  = 96   NGY  = 96   NGZ  =420)
  gives a total of  55545 points

 initial charge density was supplied:
 charge density of overlapping atoms calculated
 number of electron      58.0000000 magnetization      10.0000000
 keeping initial charge density in first step


--------------------------------------------------------------------------------------------------------


 Maximum index for augmentation-charges         4181 (set IRDMAX)


--------------------------------------------------------------------------------------------------------


 First call to EWALD:  gamma=   0.180
 Maximum number of real-space cells 5x 5x 1
 Maximum number of reciprocal cells 2x 2x 7

    FEWALD:  cpu time      0.0024: real time      0.0070


--------------------------------------- Ionic step        1  -------------------------------------------




--------------------------------------- Iteration      1(   1)  ---------------------------------------


    POTLOK:  cpu time      0.1958: real time      0.2192
    SETDIJ:  cpu time      0.4767: real time      0.4841
     EDDAV:  cpu time     56.7497: real time     58.5784
       DOS:  cpu time      0.0041: real time      0.0128
    --------------------------------------------
      LOOP:  cpu time     57.4265: real time     59.2949

 eigenvalue-minimisations  : 25600
 total energy-change (2. order) : 0.4618376E+03  (-0.1755186E+04)
 number of electron      58.0000000 magnetization      10.0000000
 augmentation part       58.0000000 magnetization      10.0000000

 Free energy of the ion-electron system (eV)
  ---------------------------------------------------
  alpha Z        PSCENC =        21.49062660
  Ewald energy   TEWEN  =     13257.94496169
  -Hartree energ DENC   =    -16507.42238872
  -exchange      EXHF   =         0.00000000
  -V(xc)+E(xc)   XCENC  =       131.68395218
  PAW double counting   =      3055.14876058    -3050.95216630
  entropy T*S    EENTRO =        -0.01243369
  eigenvalues    EBANDS =       -93.00640154
  atomic energy  EATOM  =      3646.96265231
  Solvation  Ediel_sol  =         0.00000000
  ---------------------------------------------------
  free energy    TOTEN  =       461.83756311 eV

  energy without entropy =      461.84999680  energy(sigma->0) =      461.84377996


--------------------------------------------------------------------------------------------------------




--------------------------------------- Iteration      1(   2)  ---------------------------------------


     EDDAV:  cpu time     81.1225: real time     83.5109
       DOS:  cpu time      0.0055: real time      0.0237
    --------------------------------------------
      LOOP:  cpu time     81.1282: real time     83.5689

 eigenvalue-minimisations  : 39840
 total energy-change (2. order) :-0.4375346E+03  (-0.4013082E+03)
 number of electron      58.0000000 magnetization      10.0000000
 augmentation part       58.0000000 magnetization      10.0000000

 Free energy of the ion-electron system (eV)
  ---------------------------------------------------
  alpha Z        PSCENC =        21.49062660
  Ewald energy   TEWEN  =     13257.94496169
  -Hartree energ DENC   =    -16507.42238872
  -exchange      EXHF   =         0.00000000
  -V(xc)+E(xc)   XCENC  =       131.68395218
  PAW double counting   =      3055.14876058    -3050.95216630
  entropy T*S    EENTRO =        -0.00000000
  eigenvalues    EBANDS =      -530.55345422
  atomic energy  EATOM  =      3646.96265231
  Solvation  Ediel_sol  =         0.00000000
  ---------------------------------------------------
  free energy    TOTEN  =        24.30294412 eV

  energy without entropy =       24.30294412  energy(sigma->0) =       24.30294412


--------------------------------------------------------------------------------------------------------




--------------------------------------- Iteration      1(   3)  ---------------------------------------


     EDDAV:  cpu time     68.0342: real time     69.9270
       DOS:  cpu time      0.0135: real time      0.0345
    --------------------------------------------
      LOOP:  cpu time     68.0478: real time     69.9724

 eigenvalue-minimisations  : 32256
 total energy-change (2. order) :-0.6294949E+02  (-0.6256670E+02)
 number of electron      58.0000000 magnetization      10.0000000
 augmentation part       58.0000000 magnetization      10.0000000

 Free energy of the ion-electron system (eV)
  ---------------------------------------------------
  alpha Z        PSCENC =        21.49062660
  Ewald energy   TEWEN  =     13257.94496169
  -Hartree energ DENC   =    -16507.42238872
  -exchange      EXHF   =         0.00000000
  -V(xc)+E(xc)   XCENC  =       131.68395218
  PAW double counting   =      3055.14876058    -3050.95216630
  entropy T*S    EENTRO =        -0.00000000
  eigenvalues    EBANDS =      -593.50294825
  atomic energy  EATOM  =      3646.96265231
  Solvation  Ediel_sol  =         0.00000000
  ---------------------------------------------------
  free energy    TOTEN  =       -38.64654990 eV

  energy without entropy =      -38.64654990  energy(sigma->0) =      -38.64654990


--------------------------------------------------------------------------------------------------------




--------------------------------------- Iteration      1(   4)  ---------------------------------------


     EDDAV:  cpu time     74.5358: real time     77.3920
       DOS:  cpu time      0.0062: real time      0.0390
    --------------------------------------------
      LOOP:  cpu time     74.5417: real time     77.3866

 eigenvalue-minimisations  : 35936
 total energy-change (2. order) :-0.1582751E+01  (-0.1580708E+01)
 number of electron      58.0000000 magnetization      10.0000000
 augmentation part       58.0000000 magnetization      10.0000000

 Free energy of the ion-electron system (eV)
  ---------------------------------------------------
  alpha Z        PSCENC =        21.49062660
  Ewald energy   TEWEN  =     13257.94496169
  -Hartree energ DENC   =    -16507.42238872
  -exchange      EXHF   =         0.00000000
  -V(xc)+E(xc)   XCENC  =       131.68395218
  PAW double counting   =      3055.14876058    -3050.95216630
  entropy T*S    EENTRO =        -0.00000000
  eigenvalues    EBANDS =      -595.08569908
  atomic energy  EATOM  =      3646.96265231
  Solvation  Ediel_sol  =         0.00000000
  ---------------------------------------------------
  free energy    TOTEN  =       -40.22930073 eV

  energy without entropy =      -40.22930073  energy(sigma->0) =      -40.22930073


--------------------------------------------------------------------------------------------------------




--------------------------------------- Iteration      1(   5)  ---------------------------------------


     EDDAV:  cpu time     74.0098: real time     76.5737
       DOS:  cpu time      0.0036: real time      0.0065
    CHARGE:  cpu time      2.7830: real time      2.8274
    MIXING:  cpu time      0.0093: real time      0.0139
    --------------------------------------------
      LOOP:  cpu time     76.8058: real time     79.4211

 eigenvalue-minimisations  : 35744
 total energy-change (2. order) :-0.4135909E-01  (-0.4135613E-01)
 number of electron      58.0000000 magnetization      10.0000000
 augmentation part        0.7529499 magnetization       6.4352973

 Broyden mixing:
  rms(total) = 0.23268E+01    rms(broyden)= 0.23268E+01
  rms(prec ) = 0.24101E+01
  weight for this iteration     100.00

 Free energy of the ion-electron system (eV)
  ---------------------------------------------------
  alpha Z        PSCENC =        21.49062660
  Ewald energy   TEWEN  =     13257.94496169
  -Hartree energ DENC   =    -16507.42238872
  -exchange      EXHF   =         0.00000000
  -V(xc)+E(xc)   XCENC  =       131.68395218
  PAW double counting   =      3055.14876058    -3050.95216630
  entropy T*S    EENTRO =        -0.00000000
  eigenvalues    EBANDS =      -595.12705816
  atomic energy  EATOM  =      3646.96265231
  Solvation  Ediel_sol  =         0.00000000
  ---------------------------------------------------
  free energy    TOTEN  =       -40.27065982 eV

  energy without entropy =      -40.27065982  energy(sigma->0) =      -40.27065982


--------------------------------------------------------------------------------------------------------




--------------------------------------- Iteration      1(   6)  ---------------------------------------


    POTLOK:  cpu time      0.1840: real time      0.2031
    SETDIJ:  cpu time      0.4650: real time      0.4700
     EDDAV:  cpu time     62.3089: real time     64.0670
       DOS:  cpu time      0.0111: real time      0.0342
    CHARGE:  cpu time      3.1040: real time      3.1462
    MIXING:  cpu time      0.0148: real time      0.0510
    --------------------------------------------
      LOOP:  cpu time     66.0878: real time     67.9717

 eigenvalue-minimisations  : 29088
 total energy-change (2. order) : 0.9558029E+01  (-0.6588874E+01)
 number of electron      58.0000001 magnetization       9.9998551
 augmentation part        3.6472904 magnetization       5.5379677

 Broyden mixing:
  rms(total) = 0.43494E+01    rms(broyden)= 0.43493E+01
  rms(prec ) = 0.43612E+01
  weight for this iteration     100.00

 eigenvalues of (default mixing * dielectric matrix)
  average eigenvalue GAMMA=   0.0435
  0.0435

 Free energy of the ion-electron system (eV)
  ---------------------------------------------------
  alpha Z        PSCENC =        21.49062660
  Ewald energy   TEWEN  =     13257.94496169
  -Hartree energ DENC   =    -16447.26207283
  -exchange      EXHF   =         0.00000000
  -V(xc)+E(xc)   XCENC  =       134.81008874
  PAW double counting   =      3343.00539207    -3331.14929211
  entropy T*S    EENTRO =        -0.00116857
  eigenvalues    EBANDS =      -656.51381903
  atomic energy  EATOM  =      3646.96265231
  Solvation  Ediel_sol  =         0.00000000
  ---------------------------------------------------
  free energy    TOTEN  =       -30.71263113 eV

  energy without entropy =      -30.71146256  energy(sigma->0) =      -30.71204684


--------------------------------------------------------------------------------------------------------




--------------------------------------- Iteration      1(   7)  ---------------------------------------


    POTLOK:  cpu time      0.1858: real time      0.2089
    SETDIJ:  cpu time      0.4816: real time      0.4881
     EDDAV:  cpu time     73.5421: real time     75.4943
       DOS:  cpu time      0.0055: real time      0.0262
    CHARGE:  cpu time      3.0792: real time      3.1246
    MIXING:  cpu time      0.0126: real time      0.0343
    --------------------------------------------
      LOOP:  cpu time     77.3068: real time     79.3763

 eigenvalue-minimisations  : 35616
 total energy-change (2. order) : 0.5555406E-01  (-0.5063502E+00)
 number of electron      58.0000001 magnetization      10.0015655
 augmentation part        3.1785945 magnetization       5.8966112

 Broyden mixing:
  rms(total) = 0.31635E+01    rms(broyden)= 0.31634E+01
  rms(prec ) = 0.31691E+01
  weight for this iteration     100.00

 eigenvalues of (default mixing * dielectric matrix)
  average eigenvalue GAMMA=   0.5899
  0.7121  0.4677

 Free energy of the ion-electron system (eV)
  ---------------------------------------------------
  alpha Z        PSCENC =        21.49062660
  Ewald energy   TEWEN  =     13257.94496169
  -Hartree energ DENC   =    -16451.93515114
  -exchange      EXHF   =         0.00000000
  -V(xc)+E(xc)   XCENC  =       134.11904890
  PAW double counting   =      3406.39048595    -3396.78248003
  entropy T*S    EENTRO =        -0.00000000
  eigenvalues    EBANDS =      -648.84722135
  atomic energy  EATOM  =      3646.96265231
  Solvation  Ediel_sol  =         0.00000000
  ---------------------------------------------------
  free energy    TOTEN  =       -30.65707707 eV

  energy without entropy =      -30.65707707  energy(sigma->0) =      -30.65707707


--------------------------------------------------------------------------------------------------------




--------------------------------------- Iteration      1(   8)  ---------------------------------------


    POTLOK:  cpu time      0.1808: real time      0.2027
    SETDIJ:  cpu time      0.4660: real time      0.4736
     EDDAV:  cpu time     82.2631: real time     84.8009
       DOS:  cpu time      0.0066: real time      0.0733
    CHARGE:  cpu time      3.0575: real time      3.1086
    MIXING:  cpu time      0.0178: real time      0.0620
    --------------------------------------------
      LOOP:  cpu time     85.9919: real time     88.7211

 eigenvalue-minimisations  : 40704
 total energy-change (2. order) : 0.1777348E+00  (-0.1298297E+00)
 number of electron      58.0000001 magnetization      10.0034311
 augmentation part        3.1187065 magnetization       5.9636636

 Broyden mixing:
  rms(total) = 0.22851E+01    rms(broyden)= 0.22851E+01
  rms(prec ) = 0.22913E+01
  weight for this iteration     100.00

 eigenvalues of (default mixing * dielectric matrix)
  average eigenvalue GAMMA=   0.8503
  0.3406  1.1052  1.1052

 Free energy of the ion-electron system (eV)
  ---------------------------------------------------
  alpha Z        PSCENC =        21.49062660
  Ewald energy   TEWEN  =     13257.94496169
  -Hartree energ DENC   =    -16443.92619778
  -exchange      EXHF   =         0.00000000
  -V(xc)+E(xc)   XCENC  =       134.80166845
  PAW double counting   =      3831.47084845    -3826.00488279
  entropy T*S    EENTRO =        -0.00000000
  eigenvalues    EBANDS =      -653.21901924
  atomic energy  EATOM  =      3646.96265231
  Solvation  Ediel_sol  =         0.00000000
  ---------------------------------------------------
  free energy    TOTEN  =       -30.47934230 eV

  energy without entropy =      -30.47934230  energy(sigma->0) =      -30.47934230


--------------------------------------------------------------------------------------------------------




--------------------------------------- Iteration      1(   9)  ---------------------------------------


    POTLOK:  cpu time      0.1892: real time      0.2138
    SETDIJ:  cpu time      0.4698: real time      0.4768
     EDDAV:  cpu time     69.7619: real time     72.5841
       DOS:  cpu time      0.0079: real time      0.0321
    CHARGE:  cpu time      2.6861: real time      2.7427
    MIXING:  cpu time      0.0090: real time      0.0382
    --------------------------------------------
      LOOP:  cpu time     73.1238: real time     76.0876

 eigenvalue-minimisations  : 33600
 total energy-change (2. order) : 0.2756366E+00  (-0.1361882E+00)
 number of electron      58.0000001 magnetization      10.0037076
 augmentation part        2.7569093 magnetization       6.0850656

 Broyden mixing:
  rms(total) = 0.69020E+00    rms(broyden)= 0.69020E+00
  rms(prec ) = 0.69396E+00
  weight for this iteration     100.00

 eigenvalues of (default mixing * dielectric matrix)
  average eigenvalue GAMMA=   1.0342
  1.5771  1.5771  0.3513  0.6314

 Free energy of the ion-electron system (eV)
  ---------------------------------------------------
  alpha Z        PSCENC =        21.49062660
  Ewald energy   TEWEN  =     13257.94496169
  -Hartree energ DENC   =    -16443.47534832
  -exchange      EXHF   =         0.00000000
  -V(xc)+E(xc)   XCENC  =       133.44855396
  PAW double counting   =      4224.67939327    -4224.82972081
  entropy T*S    EENTRO =        -0.00000000
  eigenvalues    EBANDS =      -646.42482438
  atomic energy  EATOM  =      3646.96265231
  Solvation  Ediel_sol  =         0.00000000
  ---------------------------------------------------
  free energy    TOTEN  =       -30.20370566 eV

  energy without entropy =      -30.20370566  energy(sigma->0) =      -30.20370566


--------------------------------------------------------------------------------------------------------




--------------------------------------- Iteration      1(  10)  ---------------------------------------


    POTLOK:  cpu time      0.2174: real time      0.2480
    SETDIJ:  cpu time      0.4591: real time      0.4676
     EDDAV:  cpu time     68.7372: real time     71.3908
       DOS:  cpu time      0.0049: real time      0.0212
    CHARGE:  cpu time      2.7117: real time      2.7698
    MIXING:  cpu time      0.0078: real time      0.0217
    --------------------------------------------
      LOOP:  cpu time     72.1380: real time     74.9191

 eigenvalue-minimisations  : 33568
 total energy-change (2. order) : 0.3270243E-01  (-0.3698039E-01)
 number of electron      58.0000001 magnetization      10.0035117
 augmentation part        2.5764939 magnetization       6.1619414

 Broyden mixing:
  rms(total) = 0.22982E+00    rms(broyden)= 0.22981E+00
  rms(prec ) = 0.23106E+00
  weight for this iteration     100.00

 eigenvalues of (default mixing * dielectric matrix)
  average eigenvalue GAMMA=   1.0906
  2.2572  1.1155  1.1155  0.3500  0.6146

 Free energy of the ion-electron system (eV)
  ---------------------------------------------------
  alpha Z        PSCENC =        21.49062660
  Ewald energy   TEWEN  =     13257.94496169
  -Hartree energ DENC   =    -16447.49522972
  -exchange      EXHF   =         0.00000000
  -V(xc)+E(xc)   XCENC  =       133.24121191
  PAW double counting   =      4294.82527312    -4297.01342040
  entropy T*S    EENTRO =        -0.00000000
  eigenvalues    EBANDS =      -640.12707875
  atomic energy  EATOM  =      3646.96265231
  Solvation  Ediel_sol  =         0.00000000
  ---------------------------------------------------
  free energy    TOTEN  =       -30.17100323 eV

  energy without entropy =      -30.17100323  energy(sigma->0) =      -30.17100323


--------------------------------------------------------------------------------------------------------




--------------------------------------- Iteration      1(  11)  ---------------------------------------


    POTLOK:  cpu time      0.1768: real time      0.2087
    SETDIJ:  cpu time      0.4638: real time      0.4712
     EDDAV:  cpu time     73.5023: real time     76.1456
       DOS:  cpu time      0.0062: real time      0.0282
    CHARGE:  cpu time      2.6761: real time      2.7308
    MIXING:  cpu time      0.0081: real time      0.0282
    --------------------------------------------
      LOOP:  cpu time     76.8334: real time     79.6129

 eigenvalue-minimisations  : 36608
 total energy-change (2. order) :-0.7097093E-02  (-0.1196715E-01)
 number of electron      58.0000001 magnetization      10.0030267
 augmentation part        2.4916397 magnetization       6.2173143

 Broyden mixing:
  rms(total) = 0.11229E+00    rms(broyden)= 0.11228E+00
  rms(prec ) = 0.11300E+00
  weight for this iteration     100.00

 eigenvalues of (default mixing * dielectric matrix)
  average eigenvalue GAMMA=   1.2144
  2.6833  1.4488  1.4488  0.3493  0.6782  0.6782

 Free energy of the ion-electron system (eV)
  ---------------------------------------------------
  alpha Z        PSCENC =        21.49062660
  Ewald energy   TEWEN  =     13257.94496169
  -Hartree energ DENC   =    -16450.11325068
  -exchange      EXHF   =         0.00000000
  -V(xc)+E(xc)   XCENC  =       133.34818956
  PAW double counting   =      4313.71634492    -4316.53373844
  entropy T*S    EENTRO =        -0.00000000
  eigenvalues    EBANDS =      -636.99388629
  atomic energy  EATOM  =      3646.96265231
  Solvation  Ediel_sol  =         0.00000000
  ---------------------------------------------------
  free energy    TOTEN  =       -30.17810033 eV

  energy without entropy =      -30.17810033  energy(sigma->0) =      -30.17810033


--------------------------------------------------------------------------------------------------------




--------------------------------------- Iteration      1(  12)  ---------------------------------------


    POTLOK:  cpu time      0.1796: real time      0.2049
    SETDIJ:  cpu time      0.4753: real time      0.4823
     EDDAV:  cpu time     74.6686: real time     77.6686
       DOS:  cpu time      0.0077: real time      0.0298
    CHARGE:  cpu time      2.6848: real time      2.7268
    MIXING:  cpu time      0.0091: real time      0.0398
    --------------------------------------------
      LOOP:  cpu time     78.0250: real time     81.1522

 eigenvalue-minimisations  : 37344
 total energy-change (2. order) :-0.1280914E-01  (-0.4381653E-02)
 number of electron      58.0000001 magnetization      10.0028465
 augmentation part        2.5288531 magnetization       6.1954763

 Broyden mixing:
  rms(total) = 0.35428E-01    rms(broyden)= 0.35424E-01
  rms(prec ) = 0.35963E-01
  weight for this iteration     100.00

 eigenvalues of (default mixing * dielectric matrix)
  average eigenvalue GAMMA=   1.1632
  2.5079  1.4891  1.4891  1.0204  0.3493  0.6433  0.6433

 Free energy of the ion-electron system (eV)
  ---------------------------------------------------
  alpha Z        PSCENC =        21.49062660
  Ewald energy   TEWEN  =     13257.94496169
  -Hartree energ DENC   =    -16451.06731116
  -exchange      EXHF   =         0.00000000
  -V(xc)+E(xc)   XCENC  =       133.37859607
  PAW double counting   =      4324.12913786    -4327.15430170
  entropy T*S    EENTRO =        -0.00000000
  eigenvalues    EBANDS =      -635.87527115
  atomic energy  EATOM  =      3646.96265231
  Solvation  Ediel_sol  =         0.00000000
  ---------------------------------------------------
  free energy    TOTEN  =       -30.19090947 eV

  energy without entropy =      -30.19090947  energy(sigma->0) =      -30.19090947


--------------------------------------------------------------------------------------------------------




--------------------------------------- Iteration      1(  13)  ---------------------------------------


    POTLOK:  cpu time      0.1737: real time      0.2068
    SETDIJ:  cpu time      0.4639: real time      0.4721
     EDDAV:  cpu time     79.0790: real time     82.3700
       DOS:  cpu time      0.0076: real time      0.0289
    CHARGE:  cpu time      2.6724: real time      2.7234
    MIXING:  cpu time      0.0085: real time      0.0319
    --------------------------------------------
      LOOP:  cpu time     82.4050: real time     85.8330

 eigenvalue-minimisations  : 39904
 total energy-change (2. order) :-0.2668482E-02  (-0.3885625E-03)
 number of electron      58.0000001 magnetization      10.0026810
 augmentation part        2.5229659 magnetization       6.2011671

 Broyden mixing:
  rms(total) = 0.15575E-01    rms(broyden)= 0.15574E-01
  rms(prec ) = 0.15744E-01
  weight for this iteration     100.00

 eigenvalues of (default mixing * dielectric matrix)
  average eigenvalue GAMMA=   1.1316
  2.5770  1.5276  1.5276  1.0484  0.3493  0.7650  0.6289  0.6289

 Free energy of the ion-electron system (eV)
  ---------------------------------------------------
  alpha Z        PSCENC =        21.49062660
  Ewald energy   TEWEN  =     13257.94496169
  -Hartree energ DENC   =    -16450.84469810
  -exchange      EXHF   =         0.00000000
  -V(xc)+E(xc)   XCENC  =       133.31655342
  PAW double counting   =      4316.31784032    -4319.22590990
  entropy T*S    EENTRO =        -0.00000000
  eigenvalues    EBANDS =      -636.15560429
  atomic energy  EATOM  =      3646.96265231
  Solvation  Ediel_sol  =         0.00000000
  ---------------------------------------------------
  free energy    TOTEN  =       -30.19357795 eV

  energy without entropy =      -30.19357795  energy(sigma->0) =      -30.19357795


--------------------------------------------------------------------------------------------------------




--------------------------------------- Iteration      1(  14)  ---------------------------------------


    POTLOK:  cpu time      0.1775: real time      0.2110
[...]
     48       3.7076      0.00000
     49       3.7597      0.00000
     50       3.7922      0.00000
     51       3.9314      0.00000
     52       4.1488      0.00000
     53       4.2592      0.00000
     54       4.3817      0.00000
     55       4.4889      0.00000
     56       4.6945      0.00000
     57       4.7637      0.00000
     58       4.8659      0.00000
     59       5.0540      0.00000
     60       5.1205      0.00000
     61       5.2008      0.00000
     62       5.2545      0.00000
     63       5.3058      0.00000
     64       5.4452      0.00000

 k-point    99 :       0.1429    0.4286    0.0000
  band No.  band energies     occupation 
      1     -19.8186      1.00000
      2     -19.6319      1.00000
      3     -19.3585      1.00000
      4     -19.2821      1.00000
      5     -19.2245      1.00000
      6     -19.1575      1.00000
      7      -9.8397      1.00000
      8      -9.4492      1.00000
      9      -9.0894      1.00000
     10      -8.8581      1.00000
     11      -8.8143      1.00000
     12      -8.6099      1.00000
     13      -8.5381      1.00000
     14      -8.3217      1.00000
     15      -8.0623      1.00000
     16      -7.7483      1.00000
     17      -7.7371      1.00000
     18      -7.3723      1.00000
     19      -7.1909      1.00000
     20      -7.0783      1.00000
     21      -6.8500      1.00000
     22      -6.7530      1.00000
     23      -6.5620      1.00000
     24      -6.4691      1.00000
     25      -4.4031      0.00000
     26      -4.4000      0.00000
     27      -4.3265      0.00000
     28      -4.1674      0.00000
     29      -4.1321      0.00000
     30      -4.0565      0.00000
     31      -3.9603      0.00000
     32      -3.8514      0.00000
     33      -3.8206      0.00000
     34      -3.7798      0.00000
     35       1.3736      0.00000
     36       1.7674      0.00000
     37       2.0312      0.00000
     38       2.1641      0.00000
     39       2.2631      0.00000
     40       2.4719      0.00000
     41       2.5053      0.00000
     42       3.0544      0.00000
     43       3.0721      0.00000
     44       3.2480      0.00000
     45       3.3403      0.00000
     46       3.4663      0.00000
     47       3.4791      0.00000
     48       3.5095      0.00000
     49       3.7284      0.00000
     50       3.8786      0.00000
     51       3.8943      0.00000
     52       4.0866      0.00000
     53       4.2231      0.00000
     54       4.4512      0.00000
     55       4.5305      0.00000
     56       4.5434      0.00000
     57       4.6099      0.00000
     58       4.7785      0.00000
     59       4.8048      0.00000
     60       4.9190      0.00000
     61       5.1728      0.00000
     62       5.2349      0.00000
     63       5.3207      0.00000
     64       5.3290      0.00000

 k-point   100 :       0.0000    0.5000    0.0000
  band No.  band energies     occupation 
      1     -19.8435      1.00000
      2     -19.6205      1.00000
      3     -19.3372      1.00000
      4     -19.2909      1.00000
      5     -19.2228      1.00000
      6     -19.1550      1.00000
      7      -9.9135      1.00000
      8      -9.4155      1.00000
      9      -9.1190      1.00000
     10      -8.8267      1.00000
     11      -8.7607      1.00000
     12      -8.6323      1.00000
     13      -8.5624      1.00000
     14      -8.1076      1.00000
     15      -8.0034      1.00000
     16      -7.9838      1.00000
     17      -7.6830      1.00000
     18      -7.4408      1.00000
     19      -7.3122      1.00000
     20      -6.9535      1.00000
     21      -6.9492      1.00000
     22      -6.7403      1.00000
     23      -6.5577      1.00000
     24      -6.3777      1.00000
     25      -4.4354      0.00000
     26      -4.4186      0.00000
     27      -4.3453      0.00000
     28      -4.1011      0.00000
     29      -4.0970      0.00000
     30      -4.0418      0.00000
     31      -3.9949      0.00000
     32      -3.8613      0.00000
     33      -3.8228      0.00000
     34      -3.8133      0.00000
     35       1.3332      0.00000
     36       1.8293      0.00000
     37       2.1627      0.00000
     38       2.1876      0.00000
     39       2.2269      0.00000
     40       2.3284      0.00000
     41       2.4761      0.00000
     42       2.9962      0.00000
     43       3.0049      0.00000
     44       3.2238      0.00000
     45       3.3036      0.00000
     46       3.4611      0.00000
     47       3.6100      0.00000
     48       3.6536      0.00000
     49       3.7704      0.00000
     50       3.8380      0.00000
     51       3.8690      0.00000
     52       4.2106      0.00000
     53       4.2591      0.00000
     54       4.3241      0.00000
     55       4.4572      0.00000
     56       4.6239      0.00000
     57       4.9717      0.00000
     58       5.0061      0.00000
     59       5.0816      0.00000
     60       5.0952      0.00000
     61       5.2011      0.00000
     62       5.2367      0.00000
     63       5.3803      0.00000
     64       5.5524      0.00000


--------------------------------------------------------------------------------------------------------


 soft charge-density along one line, spin component           1
         0         1         2         3         4         5         6         7         8         9
 total charge-density along one line
 
 soft charge-density along one line, spin component           2
         0         1         2         3         4         5         6         7         8         9
 total charge-density along one line
 
 pseudopotential strength for first ion, spin component:           1
-16.635   0.021   0.000  -0.000   0.000 -16.933   0.018   0.000
  0.021 -16.611  -0.000  -0.000  -0.000   0.018 -16.912  -0.000
  0.000  -0.000 -16.651  -0.000  -0.000   0.000  -0.000 -16.946
 -0.000  -0.000  -0.000 -16.611  -0.021  -0.000  -0.000  -0.000
  0.000  -0.000  -0.000  -0.021 -16.635   0.000  -0.000  -0.000
-16.933   0.018   0.000  -0.000   0.000 -17.212   0.013   0.000
  0.018 -16.912  -0.000  -0.000  -0.000   0.013 -17.194  -0.000
  0.000  -0.000 -16.946  -0.000  -0.000   0.000  -0.000 -17.222
 -0.000  -0.000  -0.000 -16.912  -0.018  -0.000  -0.000  -0.000
  0.000  -0.000  -0.000  -0.018 -16.933   0.000  -0.000  -0.000
  0.000   0.000  -0.001   0.000  -0.000   0.000   0.000  -0.001
  0.000   0.000  -0.001   0.000  -0.000   0.000   0.000  -0.001
 -0.000   0.000   0.000   0.000   0.002  -0.000   0.000   0.000
  0.000  -0.000   0.000   0.000   0.000   0.000  -0.000   0.000
  0.002   0.000  -0.000   0.000   0.000   0.002   0.000  -0.000
 -0.000  -0.000   0.000   0.000   0.002  -0.000  -0.000   0.000
  0.000  -0.000   0.000   0.000   0.000   0.000  -0.000   0.000
  0.002   0.000  -0.000  -0.000   0.000   0.002   0.000  -0.000
 pseudopotential strength for first ion, spin component:           2
-11.026  -0.476   0.000   0.002  -0.000 -11.360  -0.481   0.000
 -0.476 -11.394   0.000   0.000   0.002  -0.481 -11.732   0.000
  0.000   0.000 -10.658   0.000  -0.000   0.000   0.000 -10.990
  0.002   0.000   0.000 -11.394   0.476   0.002   0.000   0.000
 -0.000   0.002  -0.000   0.476 -11.026  -0.000   0.002  -0.000
-11.360  -0.481   0.000   0.002  -0.000 -11.646  -0.489   0.000
 -0.481 -11.732   0.000   0.000   0.002  -0.489 -12.024   0.000
  0.000   0.000 -10.990   0.000  -0.000   0.000   0.000 -11.269
  0.002   0.000   0.000 -11.732   0.481   0.002   0.000   0.000
 -0.000   0.002  -0.000   0.481 -11.360  -0.000   0.002  -0.000
  0.000   0.000  -0.000   0.000  -0.000   0.000   0.000  -0.000
  0.000   0.000  -0.001   0.000  -0.000   0.000   0.000  -0.001
  0.000   0.000   0.000  -0.000  -0.001   0.000   0.000   0.000
 -0.000  -0.000   0.000   0.000  -0.000  -0.000  -0.000   0.000
 -0.001  -0.000  -0.000   0.000  -0.000  -0.000  -0.000  -0.000
  0.000   0.000   0.000  -0.000  -0.001   0.000   0.000   0.000
 -0.000  -0.000   0.000   0.000  -0.000  -0.000  -0.000   0.000
 -0.001  -0.000  -0.000   0.000  -0.000  -0.001  -0.000  -0.000
 total augmentation occupancy for first ion, spin component:           1
  6.964   2.218  -0.000  -0.007  -0.000  -4.773  -2.156   0.000   0.007   0.000  -0.000   0.000   0.005  -0.000  -0.088  -0.000
  2.218   8.509  -0.000  -0.000  -0.007  -2.157  -6.261   0.000  -0.000   0.007  -0.000   0.000   0.006  -0.000  -0.003  -0.000
 -0.000  -0.000   5.301  -0.000   0.000   0.000   0.000  -3.149   0.000  -0.000   0.037  -0.003  -0.000  -0.001  -0.000   0.000
 -0.007  -0.000  -0.000   8.509  -2.218   0.007   0.000   0.000  -6.261   2.157  -0.000   0.000   0.003   0.000   0.006  -0.000
 -0.000  -0.007   0.000  -2.218   6.964   0.000   0.007  -0.000   2.156  -4.773   0.000  -0.000  -0.088  -0.000  -0.005   0.006
 -4.773  -2.157   0.000   0.007   0.000   3.822   2.225  -0.000  -0.008  -0.000   0.000  -0.000  -0.005   0.000   0.095   0.000
 -2.156  -6.261   0.000   0.000   0.007   2.225   5.356  -0.000   0.000  -0.008   0.000  -0.000  -0.007   0.000  -0.002   0.000
  0.000   0.000  -3.149   0.000  -0.000  -0.000  -0.000   2.138  -0.000   0.000  -0.039   0.004   0.000   0.001   0.000  -0.000
  0.007  -0.000   0.000  -6.261   2.156  -0.008   0.000  -0.000   5.356  -2.225   0.000  -0.000   0.002  -0.000  -0.007  -0.000
  0.000   0.007  -0.000   2.157  -4.773  -0.000  -0.008   0.000  -2.225   3.822  -0.000   0.000   0.095   0.000   0.005  -0.008
 -0.000  -0.000   0.037  -0.000   0.000   0.000   0.000  -0.039   0.000  -0.000   1.473  -0.138   0.000  -0.003  -0.000  -0.000
  0.000   0.000  -0.003   0.000  -0.000  -0.000  -0.000   0.004  -0.000   0.000  -0.138   0.030  -0.000   0.000   0.000   0.000
  0.005   0.006  -0.000   0.003  -0.088  -0.005  -0.007   0.000   0.002   0.095   0.000  -0.000   0.221   0.000   0.000  -0.019
 -0.000  -0.000  -0.001   0.000  -0.000   0.000   0.000   0.001  -0.000   0.000  -0.003   0.000   0.000   0.218   0.000  -0.000
 -0.088  -0.003  -0.000   0.006  -0.005   0.095  -0.002   0.000  -0.007   0.005  -0.000   0.000   0.000   0.000   0.221  -0.000
 -0.000  -0.000   0.000  -0.000   0.006   0.000   0.000  -0.000  -0.000  -0.008  -0.000   0.000  -0.019  -0.000  -0.000   0.003
  0.000  -0.000   0.000   0.000   0.000  -0.000  -0.000  -0.000   0.000  -0.000   0.000  -0.000  -0.000  -0.019  -0.000   0.000
  0.006   0.000  -0.000   0.000   0.000  -0.008   0.000   0.000   0.000  -0.000   0.000  -0.000  -0.000  -0.000  -0.019   0.000
 total augmentation occupancy for first ion, spin component:           2
  6.640   1.950  -0.000  -0.006  -0.000  -4.282  -1.798   0.000   0.006   0.000  -0.000   0.000   0.003  -0.000  -0.039   0.000
  1.950   8.017  -0.000  -0.000  -0.006  -1.797  -5.557   0.000   0.000   0.006  -0.000   0.000   0.003  -0.000   0.005   0.000
 -0.000  -0.000   5.181  -0.000   0.000   0.000   0.000  -2.936   0.000  -0.000   0.006   0.003  -0.000  -0.001  -0.000   0.000
 -0.006  -0.000  -0.000   8.016  -1.950   0.006   0.000   0.000  -5.557   1.797  -0.000  -0.000  -0.005   0.000   0.003   0.000
 -0.000  -0.006   0.000  -1.950   6.640   0.000   0.006  -0.000   1.798  -4.282   0.000   0.000  -0.039  -0.000  -0.003  -0.002
 -4.282  -1.797   0.000   0.006   0.000   2.858   1.527  -0.000  -0.005  -0.000   0.000  -0.000  -0.002   0.000   0.027  -0.000
 -1.798  -5.557   0.000   0.000   0.006   1.527   3.941  -0.000  -0.000  -0.005   0.000  -0.000  -0.002   0.000   0.000  -0.000
  0.000   0.000  -2.936   0.000  -0.000  -0.000  -0.000   1.716  -0.000   0.000  -0.004  -0.003   0.000   0.000   0.000  -0.000
  0.006   0.000   0.000  -5.557   1.798  -0.005  -0.000  -0.000   3.941  -1.527   0.000   0.000  -0.000  -0.000  -0.002  -0.000
  0.000   0.006  -0.000   1.797  -4.282  -0.000  -0.005   0.000  -1.527   2.858  -0.000  -0.000   0.027   0.000   0.002   0.002
 -0.000  -0.000   0.006  -0.000   0.000   0.000   0.000  -0.004   0.000  -0.000  -0.243   0.102  -0.000   0.000   0.000   0.000
  0.000   0.000   0.003  -0.000   0.000  -0.000  -0.000  -0.003   0.000  -0.000   0.102  -0.011   0.000  -0.000  -0.000  -0.000
  0.003   0.003  -0.000  -0.005  -0.039  -0.002  -0.002   0.000  -0.000   0.027  -0.000   0.000  -0.002   0.000   0.000   0.006
 -0.000  -0.000  -0.001   0.000  -0.000   0.000   0.000   0.000  -0.000   0.000   0.000  -0.000   0.000  -0.004  -0.000   0.000
 -0.039   0.005  -0.000   0.003  -0.003   0.027   0.000   0.000  -0.002   0.002   0.000  -0.000   0.000  -0.000  -0.002   0.000
  0.000   0.000   0.000   0.000  -0.002  -0.000  -0.000  -0.000  -0.000   0.002   0.000  -0.000   0.006   0.000   0.000  -0.001
 -0.000  -0.000   0.000   0.000  -0.000   0.000   0.000  -0.000  -0.000   0.000  -0.000   0.000   0.000   0.006   0.000  -0.000
 -0.002  -0.000  -0.000   0.000  -0.000   0.002   0.000   0.000  -0.000   0.000  -0.000   0.000  -0.000   0.000   0.006  -0.000


------------------------ aborting loop because EDIFF is reached ----------------------------------------


    CHARGE:  cpu time      2.8848: real time      2.9367
    FORLOC:  cpu time      0.0043: real time      0.0189
    FORNL :  cpu time      6.0173: real time      6.1205
    STRESS:  cpu time     25.1627: real time     25.4618
    FORCOR:  cpu time      0.1997: real time      0.2345
    FORHAR:  cpu time      0.0205: real time      0.0220
    MIXING:  cpu time      0.0114: real time      0.0288
    OFIELD:  cpu time      0.0004: real time      0.0071

 ---------------------------------------------------------------------------------------------

         DFTD3 V3.0 Rev 1        
 DF pbe       
 parameters
 rs18     =    1.0000
 alpha6   =   14.0000
 alpha8   =   16.0000
 k1-k3    =   16.0000    1.3333   -4.0000
 Edisp (eV)   -0.74685

 E6    (eV) :    -0.2769
 E8    (eV) :    -0.4700
 % E8        : 62.93
    FORVDW:  cpu time      0.0453: real time      0.1482

  FORCE on cell =-STRESS in cart. coord.  units (eV):
  Direction    XX          YY          ZZ          XY          YZ          ZX
  --------------------------------------------------------------------------------------
  Alpha Z    21.49063    21.49063    21.49063
  Ewald   15127.21661 15127.22638-16996.49953     0.00522    -0.00115     0.00257
  Hartree 15872.13033 15872.13544-15294.08400     0.00322    -0.00065     0.00099
  E(xc)    -236.00093  -236.00093  -236.31003     0.00000     0.00000     0.00000
  Local  -32029.84661-32029.86117 31256.67833    -0.00822     0.00178    -0.00348
  n-local   452.85109   452.85124   452.32755     0.00004     0.00000     0.00008
  augment   -34.98401   -34.98408   -35.10830    -0.00008    -0.00005    -0.00001
  Kinetic   826.45502   826.45487   830.61463    -0.00011     0.00009    -0.00002
  Fock        0.00000     0.00000     0.00000     0.00000     0.00000     0.00000
  vdW         0.42032     0.42031     0.82160     0.00001     0.00000    -0.00001
  -------------------------------------------------------------------------------------
  Total      -0.26756    -0.26730    -0.06911     0.00008     0.00004     0.00011
  in kB      -0.44893    -0.44850    -0.11595     0.00014     0.00007     0.00018
  external pressure =       -0.34 kB  Pullay stress =        0.00 kB


 VOLUME and BASIS-vectors are now :
 -----------------------------------------------------------------------------
  energy-cutoff  :      500.00
  volume of cell :      954.89
      direct lattice vectors                 reciprocal lattice vectors
     6.181820000  0.000000000  0.000000000     0.161764658  0.093394924  0.000000000
    -3.090910000  5.353610000  0.000000000     0.000000000  0.186789848  0.000000000
     0.000000000  0.000000000 28.852900000     0.000000000  0.000000000  0.034658561

  length of vectors
     6.181820000  6.181817262 28.852900000     0.186789766  0.186789848  0.034658561


 FORCES acting on ions
    electron-ion (+dipol)            ewald-force                    non-local-force                 convergence-correction
 -----------------------------------------------------------------------------------------------
   -.141E-02 -.302E-03 0.516E+00   0.124E-02 0.403E-03 -.549E+00   0.193E-03 -.792E-04 0.535E-01   0.205E-07 -.148E-06 -.984E-06
   -.564E-02 0.432E-02 -.974E+00   0.559E-02 -.429E-02 0.101E+01   0.271E-03 -.183E-03 -.414E-01   0.126E-07 0.209E-06 -.283E-06
   -.852E+02 -.503E+00 -.562E+03   0.868E+02 0.510E+00 0.564E+03   -.173E+01 -.134E-02 -.261E+01   0.396E-04 0.463E-05 0.140E-03
   0.430E+02 -.735E+02 -.562E+03   -.439E+02 0.749E+02 0.564E+03   0.868E+00 -.150E+01 -.261E+01   -.240E-04 0.321E-04 0.140E-03
   0.422E+02 0.740E+02 -.562E+03   -.430E+02 -.755E+02 0.564E+03   0.865E+00 0.150E+01 -.261E+01   -.156E-04 -.367E-04 0.140E-03
   -.421E+02 -.741E+02 0.562E+03   0.429E+02 0.755E+02 -.564E+03   -.863E+00 -.149E+01 0.260E+01   0.229E-04 0.323E-04 -.141E-03
   0.852E+02 0.579E+00 0.562E+03   -.869E+02 -.586E+00 -.564E+03   0.172E+01 -.144E-02 0.260E+01   -.395E-04 0.384E-05 -.141E-03
   -.431E+02 0.735E+02 0.562E+03   0.439E+02 -.749E+02 -.564E+03   -.861E+00 0.149E+01 0.260E+01   0.164E-04 -.361E-04 -.141E-03
 -----------------------------------------------------------------------------------------------
   -.330E-03 0.183E-03 -.544E-02   0.000E+00 -.284E-13 0.000E+00   0.331E-03 -.184E-03 0.547E-02   -.150E-06 0.732E-07 -.299E-05
 
 
 POSITION                                       TOTAL-FORCE (eV/Angst)
 -----------------------------------------------------------------------------------
      6.18181      0.00001      6.52459        -0.000001      0.000028      0.014658
      3.09088      1.78456      6.53100         0.000184     -0.000135      0.000421
      3.95402      3.56863      7.90904        -0.002921      0.001326      0.000466
      1.11429      1.63996      7.90903         0.000275     -0.003152      0.000551
      4.20442      0.14502      7.90904         0.002593      0.001895      0.000444
      5.06723      1.63711      5.14673        -0.007675      0.007937     -0.005477
      2.23042      3.56979      5.14675        -0.003115     -0.010554     -0.005631
      1.97508      0.14672      5.14671         0.010660      0.002656     -0.005433
 -----------------------------------------------------------------------------------
    total drift:                                0.000001     -0.000001      0.000033


--------------------------------------------------------------------------------------------------------



  FREE ENERGIE OF THE ION-ELECTRON SYSTEM (eV)
  ---------------------------------------------------
  free  energy   TOTEN  =       -30.94907768 eV

  energy  without entropy=      -30.94907768  energy(sigma->0) =      -30.94907768
 


--------------------------------------------------------------------------------------------------------


    POTLOK:  cpu time      0.6462: real time      0.7123


--------------------------------------------------------------------------------------------------------


     LOOP+:  cpu time   2142.3063: real time   2220.5618
    4ORBIT:  cpu time      0.0000: real time      0.0003

 total amount of memory used by VASP MPI-rank0   959286. kBytes
=======================================================================

   base      :      30000. kBytes
   nonl-proj :     704454. kBytes
   fftplans  :      19623. kBytes
   grid      :      48494. kBytes
   one-center:        248. kBytes
   wavefun   :     156467. kBytes
 
  
  
 General timing and accounting informations for this job:
 ========================================================
  
                  Total CPU time used (sec):     2165.984
                            User time (sec):     2084.615
                          System time (sec):       81.369
                         Elapsed time (sec):     2245.810
  
                   Maximum memory used (kb):     1232064.
                   Average memory used (kb):          N/A
  
                          Minor page faults:       977155
                          Major page faults:       193487
                 Voluntary context switches:       281589
