 vasp.6.4.1 05Apr23 (build Aug  9 2024 23:12:13) complex                         
 executed on              LinuxNV date 2025.10.29  08:32:04
 running    1 mpi-ranks, with    1 threads/rank, on    1 nodes
 distrk:  each k-point on    1 cores,    1 groups
 distr:  one band on NCORE=   1 cores,    1 groups
 OpenACC runtime initialized ...    1 GPUs detected


--------------------------------------------------------------------------------------------------------


 INCAR:
   PREC = Accurate
   EDIFF = 1E-5
   ENCUT = 520
   NSW = 300
   IBRION = 2
   ISMEAR = 0
   SIGMA = 0.05
   ISIF = 3
   ISPIN = 2
   MAGMOM = 6 6 0 0 0 0 0 0
   LREAL = F
   LWAVE = F
   LCHARG = F
   LDAU = .TRUE.
   LDAUTYPE = 2
   LDAUL = 2  -1
   LDAUU = 4.5 0.0
   LDAUJ = 0.9 0.0

 POTCAR:    PAW_PBE Fe 06Sep2000                  
 POTCAR:    PAW_PBE Cl 06Sep2000                  
 POTCAR:    PAW_PBE Fe 06Sep2000                  
   VRHFIN =Fe:  d7 s1                                                                               
   LEXCH  = PE                                                                                      
   EATOM  =   594.3153 eV,   43.6809 Ry                                                             
                                                                                                    
   TITEL  = PAW_PBE Fe 06Sep2000                                                                    
   LULTRA =        F    use ultrasoft PP ?                                                          
   IUNSCR =        1    unscreen: 0-lin 1-nonlin 2-no                                               
   RPACOR =    2.000    partial core radius                                                         
   POMASS =   55.847; ZVAL   =    8.000    mass and valenz                                          
   RCORE  =    2.300    outmost cutoff radius                                                       
   RWIGS  =    2.460; RWIGS  =    1.302    wigner-seitz radius (au A)                               
   ENMAX  =  267.882; ENMIN  =  200.911 eV                                                          
   RCLOC  =    1.701    cutoff for local pot                                                        
   LCOR   =        T    correct aug charges                                                         
   LPAW   =        T    paw PP                                                                      
   EAUG   =  511.368                                                                                
   DEXC   =    0.000                                                                                
   RMAX   =    2.356    core radius for proj-oper                                                   
   RAUG   =    1.300    factor for augmentation sphere                                              
   RDEP   =    2.442    radius for radial grids                                                     
   RDEPT  =    1.890    core radius for aug-charge                                                  
                                                                                                    
   Atomic configuration                                                                             
    9 entries                                                                                       
     n  l   j            E        occ.                                                              
     1  0  0.50     -6993.8440   2.0000                                                             
     2  0  0.50      -814.6047   2.0000                                                             
     2  1  1.50      -693.3689   6.0000                                                             
     3  0  0.50       -89.4732   2.0000                                                             
     3  1  1.50       -55.6373   6.0000                                                             
     3  2  2.50        -3.8151   7.0000                                                             
     4  0  0.50        -4.2551   1.0000                                                             
     4  1  1.50        -3.4015   0.0000                                                             
     4  3  2.50        -1.3606   0.0000                                                             
   Description                                                                                      
     l       E           TYP  RCUT    TYP  RCUT                                                     
     2     -3.8151135     23  2.300                                                                 
     2     -5.1756961     23  2.300                                                                 
     0     -4.2550963     23  2.300                                                                 
     0      7.2035603     23  2.300                                                                 
     1     -2.7211652     23  2.300                                                                 
     1     18.4316424     23  2.300                                                                 
  local pseudopotential read in
  partial core-charges read in
  partial kinetic energy density read in
  atomic valenz-charges read in
  non local Contribution for L=            2  read in
    real space projection operators read in
  non local Contribution for L=            2  read in
    real space projection operators read in
  non local Contribution for L=            0  read in
    real space projection operators read in
  non local Contribution for L=            0  read in
    real space projection operators read in
  non local Contribution for L=            1  read in
    real space projection operators read in
  non local Contribution for L=            1  read in
    real space projection operators read in
    PAW grid and wavefunctions read in
 
   number of l-projection  operators is LMAX  =            6
   number of lm-projection operators is LMMAX =           18
 
 POTCAR:    PAW_PBE Cl 06Sep2000                  
   VRHFIN =Cl: s2p5                                                                                 
   LEXCH  = PE                                                                                      
   EATOM  =   409.7259 eV,   30.1140 Ry                                                             
                                                                                                    
   TITEL  = PAW_PBE Cl 06Sep2000                                                                    
   LULTRA =        F    use ultrasoft PP ?                                                          
   IUNSCR =        1    unscreen: 0-lin 1-nonlin 2-no                                               
   RPACOR =    1.500    partial core radius                                                         
   POMASS =   35.453; ZVAL   =    7.000    mass and valenz                                          
   RCORE  =    1.900    outmost cutoff radius                                                       
   RWIGS  =    2.100; RWIGS  =    1.111    wigner-seitz radius (au A)                               
   ENMAX  =  262.472; ENMIN  =  196.854 eV                                                          
   ICORE  =        2    local potential                                                             
   LCOR   =        T    correct aug charges                                                         
   LPAW   =        T    paw PP                                                                      
   EAUG   =  356.192                                                                                
   DEXC   =    0.000                                                                                
   RMAX   =    1.945    core radius for proj-oper                                                   
   RAUG   =    1.300    factor for augmentation sphere                                              
   RDEP   =    2.020    radius for radial grids                                                     
   RDEPT  =    1.678    core radius for aug-charge                                                  
                                                                                                    
   Atomic configuration                                                                             
    6 entries                                                                                       
     n  l   j            E        occ.                                                              
     1  0  0.50     -2751.1850   2.0000                                                             
     2  0  0.50      -252.6861   2.0000                                                             
     2  1  1.50      -191.6157   6.0000                                                             
     3  0  0.50       -20.6916   2.0000                                                             
     3  1  0.50        -8.5949   5.0000                                                             
     3  2  1.50        -8.1635   0.0000                                                             
   Description                                                                                      
     l       E           TYP  RCUT    TYP  RCUT                                                     
     0    -20.6915656     23  1.900                                                                 
     0    -22.0521482     23  1.900                                                                 
     1     -8.5948577     23  1.900                                                                 
     1     -5.3847331     23  1.900                                                                 
     2     -8.1634956     23  1.900                                                                 
  local pseudopotential read in
  partial core-charges read in
  partial kinetic energy density read in
  atomic valenz-charges read in
  non local Contribution for L=            0  read in
    real space projection operators read in
  non local Contribution for L=            0  read in
    real space projection operators read in
  non local Contribution for L=            1  read in
    real space projection operators read in
  non local Contribution for L=            1  read in
    real space projection operators read in
    PAW grid and wavefunctions read in
 
   number of l-projection  operators is LMAX  =            4
   number of lm-projection operators is LMMAX =            8
 
  PAW_PBE Fe 06Sep2000                  :
 energy of atom  1       EATOM= -594.3153
 kinetic energy error for atom=    0.0026 (will be added to EATOM!!)
  PAW_PBE Cl 06Sep2000                  :
 energy of atom  2       EATOM= -409.7259
 kinetic energy error for atom=    0.0023 (will be added to EATOM!!)
 
 
 POSCAR: Fe Cl
  positions in direct lattice
  velocities in cartesian coordinates
 exchange correlation table for  LEXCH =        8
   RHO(1)=    0.500       N(1)  =     2000
   RHO(2)=  100.500       N(2)  =     4000
 


--------------------------------------------------------------------------------------------------------


 ion  position               nearest neighbor table
   1  0.000  1.000  0.363-   4 2.40   3 2.40   5 2.40   7 2.40   8 2.40   6 2.40
   2  0.667  0.333  0.363-   5 2.40   4 2.40   3 2.40   6 2.41   7 2.41   8 2.41
   3  0.970  0.667  0.439-   2 2.40   1 2.40
   4  0.333  0.303  0.439-   2 2.40   1 2.40
   5  0.697  0.030  0.439-   2 2.40   1 2.40
   6  0.970  0.303  0.286-   1 2.40   2 2.41
   7  0.697  0.666  0.286-   1 2.40   2 2.41
   8  0.334  0.030  0.286-   1 2.40   2 2.41
 
  LATTYP: Found a hexagonal cell.
 ALAT       =     6.1725250716
 C/A-ratio  =     2.9117638891
  
  Lattice vectors:
  
 A1 = (   6.1725250716,   0.0000000000,   0.0000000000)
 A2 = (  -3.0862625310,   5.3455602215,   0.0000000000)
 A3 = (   0.0000000000,   0.0000000000,  17.9729356082)


Analysis of symmetry for initial positions (statically):
=====================================================================
 Subroutine PRICEL returns:
 Original cell was already a primitive cell.
 

 Routine SETGRP: Setting up the symmetry group for a 
 hexagonal supercell.


 Subroutine GETGRP returns: Found  3 space group operations
 (whereof  3 operations were pure point group operations)
 out of a pool of 24 trial point group operations.


The static configuration has the point symmetry C_3 .


Analysis of symmetry for dynamics (positions and initial velocities):
=====================================================================
 Subroutine PRICEL returns:
 Original cell was already a primitive cell.
 

 Routine SETGRP: Setting up the symmetry group for a 
 hexagonal supercell.


 Subroutine GETGRP returns: Found  3 space group operations
 (whereof  3 operations were pure point group operations)
 out of a pool of 24 trial point group operations.


The dynamic configuration has the point symmetry C_3 .


Analysis of structural, dynamic, and magnetic symmetry:
=====================================================================
 Subroutine PRICEL returns:
 Original cell was already a primitive cell.
 

 Routine SETGRP: Setting up the symmetry group for a 
 hexagonal supercell.


 Subroutine GETGRP returns: Found  3 space group operations
 (whereof  3 operations were pure point group operations)
 out of a pool of 24 trial point group operations.


The overall configuration has the point symmetry C_3 .


 Subroutine INISYM returns: Found  3 space group operations
 (whereof  3 operations are pure point group operations),
 and found     1 'primitive' translations


----------------------------------------------------------------------------------------

                                     Primitive cell                                     

  volume of cell :     593.0279

  direct lattice vectors                    reciprocal lattice vectors
     6.172525072  0.000000000  0.000000000     0.162008252  0.093535566 -0.000000000
    -3.086262531  5.345560222  0.000000000     0.000000000  0.187071132  0.000000000
     0.000000000  0.000000000 17.972935608     0.000000000 -0.000000000  0.055639213

  length of vectors
     6.172525072  6.172522215 17.972935608     0.187071045  0.187071132  0.055639213

  position of ions in fractional coordinates (direct lattice)
     0.000000915  0.999999362  0.362536881
     0.666665863  0.333333877  0.362847431
     0.970204551  0.667046314  0.439272934
     0.332953443  0.303158594  0.439272019
     0.696839465  0.029798334  0.439272434
     0.969671100  0.303378452  0.286023343
     0.696620717  0.666296781  0.286024245
     0.333703987  0.030328270  0.286021964

  ion indices of the primitive-cell ions
   primitive index   ion index
                 1           1
                 2           2
                 3           3
                 4           4
                 5           5
                 6           6
                 7           7
                 8           8

----------------------------------------------------------------------------------------

 
 
 KPOINTS: Automatic mesh                          

Automatic generation of k-mesh.
 Grid dimensions read from file:
 generate k-points for:   24   24    1

 Generating k-lattice:

  Cartesian coordinates                     Fractional coordinates (reciprocal lattice)
     0.006750344  0.003897315 -0.000000000     0.041666667 -0.000000000  0.000000000
     0.000000000  0.007794630  0.000000000     0.000000000  0.041666667  0.000000000
     0.000000000 -0.000000000  0.055639213     0.000000000  0.000000000  1.000000000

  Length of vectors
     0.007794627  0.007794630  0.055639213

  Shift w.r.t. Gamma in fractional coordinates (k-lattice)
     0.000000000  0.000000000  0.000000000

 
 Subroutine IBZKPT returns following result:
 ===========================================
 
 Found     98 irreducible k-points:
 
 Following reciprocal coordinates:
            Coordinates               Weight
  0.000000  0.000000  0.000000      1.000000
  0.041667  0.000000  0.000000      6.000000
  0.083333  0.000000  0.000000      6.000000
  0.125000  0.000000  0.000000      6.000000
  0.166667  0.000000  0.000000      6.000000
  0.208333  0.000000  0.000000      6.000000
  0.250000  0.000000  0.000000      6.000000
  0.291667  0.000000  0.000000      6.000000
  0.333333  0.000000  0.000000      6.000000
  0.375000  0.000000  0.000000      6.000000
  0.416667  0.000000  0.000000      6.000000
  0.458333  0.000000  0.000000      6.000000
  0.500000  0.000000  0.000000      3.000000
  0.041667  0.041667  0.000000      6.000000
  0.083333  0.041667  0.000000      6.000000
 -0.083333  0.125000  0.000000      6.000000
  0.125000  0.041667  0.000000      6.000000
 -0.125000  0.166667  0.000000      6.000000
  0.166667  0.041667  0.000000      6.000000
 -0.166667  0.208333  0.000000      6.000000
  0.208333  0.041667  0.000000      6.000000
 -0.208333  0.250000  0.000000      6.000000
  0.250000  0.041667  0.000000      6.000000
 -0.250000  0.291667  0.000000      6.000000
  0.291667  0.041667  0.000000      6.000000
 -0.291667  0.333333  0.000000      6.000000
  0.333333  0.041667  0.000000      6.000000
 -0.333333  0.375000  0.000000      6.000000
  0.375000  0.041667  0.000000      6.000000
 -0.375000  0.416667  0.000000      6.000000
  0.416667  0.041667  0.000000      6.000000
 -0.416667  0.458333  0.000000      6.000000
  0.458333  0.041667  0.000000      6.000000
 -0.458333  0.500000  0.000000      6.000000
  0.083333  0.083333  0.000000      6.000000
  0.125000  0.083333  0.000000      6.000000
 -0.125000  0.208333  0.000000      6.000000
  0.166667  0.083333  0.000000      6.000000
 -0.166667  0.250000  0.000000      6.000000
  0.208333  0.083333  0.000000      6.000000
 -0.208333  0.291667  0.000000      6.000000
  0.250000  0.083333  0.000000      6.000000
 -0.250000  0.333333  0.000000      6.000000
  0.291667  0.083333  0.000000      6.000000
 -0.291667  0.375000  0.000000      6.000000
  0.333333  0.083333  0.000000      6.000000
 -0.333333  0.416667  0.000000      6.000000
  0.375000  0.083333  0.000000      6.000000
 -0.375000  0.458333  0.000000      6.000000
  0.416667  0.083333  0.000000      6.000000
 -0.416667  0.500000  0.000000      6.000000
  0.458333  0.083333  0.000000      6.000000
  0.125000  0.125000  0.000000      6.000000
  0.166667  0.125000  0.000000      6.000000
 -0.166667  0.291667  0.000000      6.000000
  0.208333  0.125000  0.000000      6.000000
 -0.208333  0.333333  0.000000      6.000000
  0.250000  0.125000  0.000000      6.000000
 -0.250000  0.375000  0.000000      6.000000
  0.291667  0.125000  0.000000      6.000000
 -0.291667  0.416667  0.000000      6.000000
  0.333333  0.125000  0.000000      6.000000
 -0.333333  0.458333  0.000000      6.000000
  0.375000  0.125000  0.000000      6.000000
 -0.375000  0.500000  0.000000      6.000000
  0.416667  0.125000  0.000000      6.000000
 -0.416667 -0.458333  0.000000      6.000000
  0.166667  0.166667  0.000000      6.000000
  0.208333  0.166667  0.000000      6.000000
 -0.208333  0.375000  0.000000      6.000000
  0.250000  0.166667  0.000000      6.000000
 -0.250000  0.416667  0.000000      6.000000
  0.291667  0.166667  0.000000      6.000000
 -0.291667  0.458333  0.000000      6.000000
  0.333333  0.166667  0.000000      6.000000
 -0.333333  0.500000  0.000000      6.000000
  0.375000  0.166667  0.000000      6.000000
 -0.375000 -0.458333  0.000000      6.000000
  0.416667  0.166667  0.000000      6.000000
  0.208333  0.208333  0.000000      6.000000
  0.250000  0.208333  0.000000      6.000000
 -0.250000  0.458333  0.000000      6.000000
  0.291667  0.208333  0.000000      6.000000
 -0.291667  0.500000  0.000000      6.000000
  0.333333  0.208333  0.000000      6.000000
 -0.333333 -0.458333  0.000000      6.000000
  0.375000  0.208333  0.000000      6.000000
 -0.375000 -0.416667  0.000000      6.000000
  0.250000  0.250000  0.000000      6.000000
  0.291667  0.250000  0.000000      6.000000
 -0.291667 -0.458333  0.000000      6.000000
  0.333333  0.250000  0.000000      6.000000
 -0.333333 -0.416667  0.000000      6.000000
  0.375000  0.250000  0.000000      6.000000
  0.291667  0.291667  0.000000      6.000000
  0.333333  0.291667  0.000000      6.000000
 -0.333333 -0.375000  0.000000      6.000000
  0.333333  0.333333  0.000000      2.000000
 
 Following cartesian coordinates:
            Coordinates               Weight
  0.000000  0.000000  0.000000      1.000000
  0.006750  0.003897  0.000000      6.000000
  0.013501  0.007795  0.000000      6.000000
  0.020251  0.011692  0.000000      6.000000
  0.027001  0.015589  0.000000      6.000000
  0.033752  0.019487  0.000000      6.000000
  0.040502  0.023384  0.000000      6.000000
  0.047252  0.027281  0.000000      6.000000
  0.054003  0.031179  0.000000      6.000000
  0.060753  0.035076  0.000000      6.000000
  0.067503  0.038973  0.000000      6.000000
  0.074254  0.042870  0.000000      6.000000
  0.081004  0.046768  0.000000      3.000000
  0.006750  0.011692  0.000000      6.000000
  0.013501  0.015589  0.000000      6.000000
 -0.013501  0.015589  0.000000      6.000000
  0.020251  0.019487  0.000000      6.000000
 -0.020251  0.019487  0.000000      6.000000
  0.027001  0.023384  0.000000      6.000000
 -0.027001  0.023384  0.000000      6.000000
  0.033752  0.027281  0.000000      6.000000
 -0.033752  0.027281  0.000000      6.000000
  0.040502  0.031179  0.000000      6.000000
 -0.040502  0.031179  0.000000      6.000000
  0.047252  0.035076  0.000000      6.000000
 -0.047252  0.035076  0.000000      6.000000
  0.054003  0.038973  0.000000      6.000000
 -0.054003  0.038973  0.000000      6.000000
  0.060753  0.042870  0.000000      6.000000
 -0.060753  0.042870  0.000000      6.000000
  0.067503  0.046768  0.000000      6.000000
 -0.067503  0.046768  0.000000      6.000000
  0.074254  0.050665  0.000000      6.000000
 -0.074254  0.050665  0.000000      6.000000
  0.013501  0.023384  0.000000      6.000000
  0.020251  0.027281  0.000000      6.000000
 -0.020251  0.027281  0.000000      6.000000
  0.027001  0.031179  0.000000      6.000000
 -0.027001  0.031179  0.000000      6.000000
  0.033752  0.035076  0.000000      6.000000
 -0.033752  0.035076  0.000000      6.000000
  0.040502  0.038973  0.000000      6.000000
 -0.040502  0.038973  0.000000      6.000000
  0.047252  0.042870  0.000000      6.000000
 -0.047252  0.042870  0.000000      6.000000
  0.054003  0.046768  0.000000      6.000000
 -0.054003  0.046768  0.000000      6.000000
  0.060753  0.050665  0.000000      6.000000
 -0.060753  0.050665  0.000000      6.000000
  0.067503  0.054562  0.000000      6.000000
 -0.067503  0.054562  0.000000      6.000000
  0.074254  0.058460  0.000000      6.000000
  0.020251  0.035076  0.000000      6.000000
  0.027001  0.038973  0.000000      6.000000
 -0.027001  0.038973  0.000000      6.000000
  0.033752  0.042870  0.000000      6.000000
 -0.033752  0.042870  0.000000      6.000000
  0.040502  0.046768  0.000000      6.000000
 -0.040502  0.046768  0.000000      6.000000
  0.047252  0.050665  0.000000      6.000000
 -0.047252  0.050665  0.000000      6.000000
  0.054003  0.054562  0.000000      6.000000
 -0.054003  0.054562  0.000000      6.000000
  0.060753  0.058460  0.000000      6.000000
 -0.060753  0.058460  0.000000      6.000000
  0.067503  0.062357  0.000000      6.000000
 -0.067503 -0.124714  0.000000      6.000000
  0.027001  0.046768  0.000000      6.000000
  0.033752  0.050665  0.000000      6.000000
 -0.033752  0.050665  0.000000      6.000000
  0.040502  0.054562  0.000000      6.000000
 -0.040502  0.054562  0.000000      6.000000
  0.047252  0.058460  0.000000      6.000000
 -0.047252  0.058460  0.000000      6.000000
  0.054003  0.062357  0.000000      6.000000
 -0.054003  0.062357  0.000000      6.000000
  0.060753  0.066254  0.000000      6.000000
 -0.060753 -0.120817  0.000000      6.000000
  0.067503  0.070152  0.000000      6.000000
  0.033752  0.058460  0.000000      6.000000
  0.040502  0.062357  0.000000      6.000000
 -0.040502  0.062357  0.000000      6.000000
  0.047252  0.066254  0.000000      6.000000
 -0.047252  0.066254  0.000000      6.000000
  0.054003  0.070152  0.000000      6.000000
 -0.054003 -0.116919  0.000000      6.000000
  0.060753  0.074049  0.000000      6.000000
 -0.060753 -0.113022  0.000000      6.000000
  0.040502  0.070152  0.000000      6.000000
  0.047252  0.074049  0.000000      6.000000
 -0.047252 -0.113022  0.000000      6.000000
  0.054003  0.077946  0.000000      6.000000
 -0.054003 -0.109125  0.000000      6.000000
  0.060753  0.081844  0.000000      6.000000
  0.047252  0.081844  0.000000      6.000000
  0.054003  0.085741  0.000000      6.000000
 -0.054003 -0.101330  0.000000      6.000000
  0.054003  0.093536  0.000000      2.000000
 


--------------------------------------------------------------------------------------------------------




 Dimension of arrays:
   k-points           NKPTS =     98   k-points in BZ     NKDIM =     98   number of bands    NBANDS=     40
   number of dos      NEDOS =    301   number of ions     NIONS =      8
   non local maximal  LDIM  =      6   non local SUM 2l+1 LMDIM =     18
   total plane-waves  NPLWV = 322560
   max r-space proj   IRMAX =      1   max aug-charges    IRDMAX=  19573
   dimension x,y,z NGX =    48 NGY =   48 NGZ =  140
   dimension x,y,z NGXF=    96 NGYF=   96 NGZF=  280
   support grid    NGXF=    96 NGYF=   96 NGZF=  280
   ions per type =               2   6
   NGX,Y,Z   is equivalent  to a cutoff of  12.93, 12.93, 12.95 a.u.
   NGXF,Y,Z  is equivalent  to a cutoff of  25.86, 25.86, 25.90 a.u.

 SYSTEM =  unknown system                          
 POSCAR =  Fe Cl                                   

 Startparameter for this run:
   NWRITE =      2    write-flag & timer
   PREC   = accura    normal or accurate (medium, high low for compatibility)
   ISTART =      0    job   : 0-new  1-cont  2-samecut
   ICHARG =      2    charge: 1-file 2-atom 10-const
   ISPIN  =      2    spin polarized calculation?
   LNONCOLLINEAR =      F non collinear calculations
   LSORBIT =      F    spin-orbit coupling
   INIWAV =      1    electr: 0-lowe 1-rand  2-diag
   LASPH  =      F    aspherical Exc in radial PAW
 Electronic Relaxation 1
   ENCUT  =  520.0 eV  38.22 Ry    6.18 a.u.  11.48 11.48 33.42*2*pi/ulx,y,z
   ENINI  =  520.0     initial cutoff
   ENAUG  =  511.4 eV  augmentation charge cutoff
   NELM   =     60;   NELMIN=  2; NELMDL=  0     # of ELM steps 
   EDIFF  = 0.1E-04   stopping-criterion for ELM
   LREAL  =      F    real-space projection
   NLSPLINE    = F    spline interpolate recip. space projectors
   LCOMPAT=      F    compatible to vasp.4.4
   GGA_COMPAT  = T    GGA compatible to vasp.4.4-vasp.4.6
   LMAXPAW     = -100 max onsite density
   LMAXMIX     =    2 max onsite mixed and CHGCAR
   VOSKOWN=      0    Vosko Wilk Nusair interpolation
   ROPT   =    0.00000   0.00000
 Ionic relaxation
   EDIFFG = 0.1E-03   stopping-criterion for IOM
   NSW    =    300    number of steps for IOM
   NBLOCK =      1;   KBLOCK =    300    inner block; outer block 
   IBRION =      2    ionic relax: 0-MD 1-quasi-New 2-CG
   NFREE  =      1    steps in history (QN), initial steepest desc. (CG)
   ISIF   =      3    stress and relaxation
   IWAVPR =     11    prediction:  0-non 1-charg 2-wave 3-comb
   ISYM   =      2    0-nonsym 1-usesym 2-fastsym
   LCORR  =      T    Harris-Foulkes like correction to forces

   POTIM  = 0.5000    time-step for ionic-motion
   TEIN   =    0.0    initial temperature
   TEBEG  =    0.0;   TEEND  =   0.0 temperature during run
   SMASS  =  -3.00    Nose mass-parameter (am)
   estimated Nose-frequenzy (Omega)   =  0.10E-29 period in steps = 0.13E+47 mass=  -0.871E-27a.u.
   SCALEE = 1.0000    scale energy and forces
   NPACO  =    256;   APACO  = 10.0  distance and # of slots for P.C.
   PSTRESS=    0.0 pullay stress

  Mass of Ions in am
   POMASS =  55.85 35.45
  Ionic Valenz
   ZVAL   =   8.00  7.00
  Atomic Wigner-Seitz radii
   RWIGS  =  -1.00 -1.00
  virtual crystal weights 
   VCA    =   1.00  1.00
   NELECT =      58.0000    total number of electrons
   NUPDOWN=      -1.0000    fix difference up-down

 DOS related values:
   EMIN   =  10.00;   EMAX   =-10.00  energy-range for DOS
   EFERMI =   0.00;   METHOD = LEGACY      
   ISMEAR =     0;   SIGMA  =   0.05  broadening in eV -4-tet -1-fermi 0-gaus

 Electronic relaxation 2 (details)
   IALGO  =     38    algorithm
   LDIAG  =      T    sub-space diagonalisation (order eigenvalues)
   LSUBROT=      F    optimize rotation matrix (better conditioning)
   TURBO    =      0    0=normal 1=particle mesh
   IRESTART =      0    0=no restart 2=restart with 2 vectors
   NREBOOT  =      0    no. of reboots
   NMIN     =      0    reboot dimension
   EREF     =   0.00    reference energy to select bands
   IMIX   =      4    mixing-type and parameters
     AMIX     =   0.40;   BMIX     =  1.00
     AMIX_MAG =   1.60;   BMIX_MAG =  1.00
     AMIN     =   0.10
     WC   =   100.;   INIMIX=   1;  MIXPRE=   1;  MAXMIX= -45

 Intra band minimization:
   WEIMIN = 0.0010     energy-eigenvalue tresh-hold
   EBREAK =  0.63E-07  absolut break condition
   DEPER  =   0.30     relativ break condition  

   TIME   =   0.40     timestep for ELM

  volume/ion in A,a.u.               =      74.13       500.24
  Fermi-wavevector in a.u.,A,eV,Ry     =   0.754268  1.425360  7.740633  0.568921
  Thomas-Fermi vector in A             =   1.851897
 
 Write flags
   LWAVE        =      F    write WAVECAR
   LDOWNSAMPLE  =      F    k-point downsampling of WAVECAR
   LCHARG       =      F    write CHGCAR
   LVTOT        =      F    write LOCPOT, total local potential
   LVHAR        =      F    write LOCPOT, Hartree potential only
   LELF         =      F    write electronic localiz. function (ELF)
   LORBIT       =      0    0 simple, 1 ext, 2 COOP (PROOUT), +10 PAW based schemes


 Dipole corrections
   LMONO  =      F    monopole corrections only (constant potential shift)
   LDIPOL =      F    correct potential (dipole corrections)
   IDIPOL =      0    1-x, 2-y, 3-z, 4-all directions 
   EPSILON=  1.0000000 bulk dielectric constant

 LDA+U is selected, type is set to LDAUTYPE =  2
   angular momentum for each species LDAUL =     2   -1
   U (eV)           for each species LDAUU =   4.5  0.0
   J (eV)           for each species LDAUJ =   0.9  0.0
 Exchange correlation treatment:
   GGA     =    --    GGA type
   LEXCH   =     8    internal setting for exchange type
   LIBXC   =     F    Libxc                    
   VOSKOWN =     0    Vosko Wilk Nusair interpolation
   LHFCALC =     F    Hartree Fock is set to
   LHFONE  =     F    Hartree Fock one center treatment
   AEXX    =    0.0000 exact exchange contribution

 Linear response parameters
   LEPSILON=     F    determine dielectric tensor
   LRPA    =     F    only Hartree local field effects (RPA)
   LNABLA  =     F    use nabla operator in PAW spheres
   LVEL    =     F    velocity operator in full k-point grid
   CSHIFT  =0.1000    complex shift for real part using Kramers Kronig
   OMEGAMAX=  -1.0    maximum frequency
   DEG_THRESHOLD= 0.2000000E-02 threshold for treating states as degnerate
   RTIME   =   -0.100 relaxation time in fs
  (WPLASMAI=    0.000 imaginary part of plasma frequency in eV, 0.658/RTIME)
   DFIELD  = 0.0000000 0.0000000 0.0000000 field for delta impulse in time
 
  Optional k-point grid parameters
   LKPOINTS_OPT  =     F    use optional k-point grid
   KPOINTS_OPT_MODE=     1    mode for optional k-point grid
 
 Orbital magnetization related:
   ORBITALMAG=     F  switch on orbital magnetization
   LCHIMAG   =     F  perturbation theory with respect to B field
   DQ        =  0.001000  dq finite difference perturbation B field
   LLRAUG    =     F  two centre corrections for induced B field
   LBONE     =     F  B-component reconstruction in AE one-centre
   LVGVCALC  =     T  calculate vGv susceptibility
   LVGVAPPL  =     F  apply vGv susceptibility instead of pGv for G=0

 Random number generation:
   RANDOM_GENERATOR = DEFAULT
   PCG_SEED         = not used


--------------------------------------------------------------------------------------------------------


 conjugate gradient relaxation of ions
 charge density and potential will be updated during run
 spin polarized calculation
 Variant of blocked Davidson
 Davidson routine will perform the subspace rotation
 perform sub-space diagonalisation
    after iterative eigenvector-optimisation
 modified Broyden-mixing scheme, WC =      100.0
 initial mixing is a Kerker type mixing with AMIX =  0.4000 and BMIX =      1.0000
 Hartree-type preconditioning will be used
 using additional bands            11
 reciprocal scheme for non local part
 use partial core corrections
 calculate Harris-corrections to forces 
   (improved forces if not selfconsistent)
 use gradient corrections 
 use of overlap-Matrix (Vanderbilt PP)
 Gauss-broadening in eV      SIGMA  =   0.05


--------------------------------------------------------------------------------------------------------


  energy-cutoff  :      520.00
  volume of cell :      593.03
      direct lattice vectors                 reciprocal lattice vectors
     6.172525072  0.000000000  0.000000000     0.162008252  0.093535566 -0.000000000
    -3.086262531  5.345560222  0.000000000     0.000000000  0.187071132  0.000000000
     0.000000000  0.000000000 17.972935608     0.000000000 -0.000000000  0.055639213

  length of vectors
     6.172525072  6.172522215 17.972935608     0.187071045  0.187071132  0.055639213


 
 k-points in units of 2pi/SCALE and weight: Automatic mesh                          
   0.00000000  0.00000000  0.00000000       0.002
   0.00675034  0.00389732  0.00000000       0.010
   0.01350069  0.00779463  0.00000000       0.010
   0.02025103  0.01169195  0.00000000       0.010
   0.02700138  0.01558926  0.00000000       0.010
   0.03375172  0.01948658  0.00000000       0.010
   0.04050206  0.02338389  0.00000000       0.010
   0.04725241  0.02728121  0.00000000       0.010
   0.05400275  0.03117852  0.00000000       0.010
   0.06075309  0.03507584  0.00000000       0.010
   0.06750344  0.03897315  0.00000000       0.010
   0.07425378  0.04287047  0.00000000       0.010
   0.08100413  0.04676778  0.00000000       0.005
   0.00675034  0.01169195  0.00000000       0.010
   0.01350069  0.01558926  0.00000000       0.010
  -0.01350069  0.01558926  0.00000000       0.010
   0.02025103  0.01948658  0.00000000       0.010
  -0.02025103  0.01948658  0.00000000       0.010
   0.02700138  0.02338389  0.00000000       0.010
  -0.02700138  0.02338389  0.00000000       0.010
   0.03375172  0.02728121  0.00000000       0.010
  -0.03375172  0.02728121  0.00000000       0.010
   0.04050206  0.03117852  0.00000000       0.010
  -0.04050206  0.03117852  0.00000000       0.010
   0.04725241  0.03507584  0.00000000       0.010
  -0.04725241  0.03507584  0.00000000       0.010
   0.05400275  0.03897315  0.00000000       0.010
  -0.05400275  0.03897315  0.00000000       0.010
   0.06075309  0.04287047  0.00000000       0.010
  -0.06075309  0.04287047  0.00000000       0.010
   0.06750344  0.04676778  0.00000000       0.010
  -0.06750344  0.04676778  0.00000000       0.010
   0.07425378  0.05066510  0.00000000       0.010
  -0.07425378  0.05066510  0.00000000       0.010
   0.01350069  0.02338389  0.00000000       0.010
   0.02025103  0.02728121  0.00000000       0.010
  -0.02025103  0.02728121  0.00000000       0.010
   0.02700138  0.03117852  0.00000000       0.010
  -0.02700138  0.03117852  0.00000000       0.010
   0.03375172  0.03507584  0.00000000       0.010
  -0.03375172  0.03507584  0.00000000       0.010
   0.04050206  0.03897315  0.00000000       0.010
  -0.04050206  0.03897315  0.00000000       0.010
   0.04725241  0.04287047  0.00000000       0.010
  -0.04725241  0.04287047  0.00000000       0.010
   0.05400275  0.04676778  0.00000000       0.010
  -0.05400275  0.04676778  0.00000000       0.010
   0.06075309  0.05066510  0.00000000       0.010
  -0.06075309  0.05066510  0.00000000       0.010
   0.06750344  0.05456241  0.00000000       0.010
  -0.06750344  0.05456241  0.00000000       0.010
   0.07425378  0.05845973  0.00000000       0.010
   0.02025103  0.03507584  0.00000000       0.010
   0.02700138  0.03897315  0.00000000       0.010
  -0.02700138  0.03897315  0.00000000       0.010
   0.03375172  0.04287047  0.00000000       0.010
  -0.03375172  0.04287047  0.00000000       0.010
   0.04050206  0.04676778  0.00000000       0.010
  -0.04050206  0.04676778  0.00000000       0.010
   0.04725241  0.05066510  0.00000000       0.010
  -0.04725241  0.05066510  0.00000000       0.010
   0.05400275  0.05456241  0.00000000       0.010
  -0.05400275  0.05456241  0.00000000       0.010
   0.06075309  0.05845973  0.00000000       0.010
  -0.06075309  0.05845973  0.00000000       0.010
   0.06750344  0.06235704  0.00000000       0.010
  -0.06750344 -0.12471409  0.00000000       0.010
   0.02700138  0.04676778  0.00000000       0.010
   0.03375172  0.05066510  0.00000000       0.010
  -0.03375172  0.05066510  0.00000000       0.010
   0.04050206  0.05456241  0.00000000       0.010
  -0.04050206  0.05456241  0.00000000       0.010
   0.04725241  0.05845973  0.00000000       0.010
  -0.04725241  0.05845973  0.00000000       0.010
   0.05400275  0.06235704  0.00000000       0.010
  -0.05400275  0.06235704  0.00000000       0.010
   0.06075309  0.06625436  0.00000000       0.010
  -0.06075309 -0.12081677  0.00000000       0.010
   0.06750344  0.07015167  0.00000000       0.010
   0.03375172  0.05845973  0.00000000       0.010
   0.04050206  0.06235704  0.00000000       0.010
  -0.04050206  0.06235704  0.00000000       0.010
   0.04725241  0.06625436  0.00000000       0.010
  -0.04725241  0.06625436  0.00000000       0.010
   0.05400275  0.07015167  0.00000000       0.010
  -0.05400275 -0.11691946  0.00000000       0.010
   0.06075309  0.07404899  0.00000000       0.010
  -0.06075309 -0.11302214  0.00000000       0.010
   0.04050206  0.07015167  0.00000000       0.010
   0.04725241  0.07404899  0.00000000       0.010
  -0.04725241 -0.11302214  0.00000000       0.010
   0.05400275  0.07794630  0.00000000       0.010
  -0.05400275 -0.10912483  0.00000000       0.010
   0.06075309  0.08184362  0.00000000       0.010
   0.04725241  0.08184362  0.00000000       0.010
   0.05400275  0.08574094  0.00000000       0.010
  -0.05400275 -0.10133020  0.00000000       0.010
   0.05400275  0.09353557  0.00000000       0.003
 
 k-points in reciprocal lattice and weights: Automatic mesh                          
   0.00000000  0.00000000  0.00000000       0.002
   0.04166667  0.00000000  0.00000000       0.010
   0.08333333  0.00000000  0.00000000       0.010
   0.12500000  0.00000000  0.00000000       0.010
   0.16666667  0.00000000  0.00000000       0.010
   0.20833333  0.00000000  0.00000000       0.010
   0.25000000  0.00000000  0.00000000       0.010
   0.29166667  0.00000000  0.00000000       0.010
   0.33333333  0.00000000  0.00000000       0.010
   0.37500000  0.00000000  0.00000000       0.010
   0.41666667  0.00000000  0.00000000       0.010
   0.45833333  0.00000000  0.00000000       0.010
   0.50000000  0.00000000  0.00000000       0.005
   0.04166667  0.04166667  0.00000000       0.010
   0.08333333  0.04166667  0.00000000       0.010
  -0.08333333  0.12500000  0.00000000       0.010
   0.12500000  0.04166667  0.00000000       0.010
  -0.12500000  0.16666667  0.00000000       0.010
   0.16666667  0.04166667  0.00000000       0.010
  -0.16666667  0.20833333  0.00000000       0.010
   0.20833333  0.04166667  0.00000000       0.010
  -0.20833333  0.25000000  0.00000000       0.010
   0.25000000  0.04166667  0.00000000       0.010
  -0.25000000  0.29166667  0.00000000       0.010
   0.29166667  0.04166667  0.00000000       0.010
  -0.29166667  0.33333333  0.00000000       0.010
   0.33333333  0.04166667  0.00000000       0.010
  -0.33333333  0.37500000  0.00000000       0.010
   0.37500000  0.04166667  0.00000000       0.010
  -0.37500000  0.41666667  0.00000000       0.010
   0.41666667  0.04166667  0.00000000       0.010
  -0.41666667  0.45833333  0.00000000       0.010
   0.45833333  0.04166667  0.00000000       0.010
  -0.45833333  0.50000000  0.00000000       0.010
   0.08333333  0.08333333  0.00000000       0.010
   0.12500000  0.08333333  0.00000000       0.010
  -0.12500000  0.20833333  0.00000000       0.010
   0.16666667  0.08333333  0.00000000       0.010
  -0.16666667  0.25000000  0.00000000       0.010
   0.20833333  0.08333333  0.00000000       0.010
  -0.20833333  0.29166667  0.00000000       0.010
   0.25000000  0.08333333  0.00000000       0.010
  -0.25000000  0.33333333  0.00000000       0.010
   0.29166667  0.08333333  0.00000000       0.010
  -0.29166667  0.37500000  0.00000000       0.010
   0.33333333  0.08333333  0.00000000       0.010
  -0.33333333  0.41666667  0.00000000       0.010
   0.37500000  0.08333333  0.00000000       0.010
  -0.37500000  0.45833333  0.00000000       0.010
   0.41666667  0.08333333  0.00000000       0.010
  -0.41666667  0.50000000  0.00000000       0.010
   0.45833333  0.08333333  0.00000000       0.010
   0.12500000  0.12500000  0.00000000       0.010
   0.16666667  0.12500000  0.00000000       0.010
  -0.16666667  0.29166667  0.00000000       0.010
   0.20833333  0.12500000  0.00000000       0.010
  -0.20833333  0.33333333  0.00000000       0.010
   0.25000000  0.12500000  0.00000000       0.010
  -0.25000000  0.37500000  0.00000000       0.010
   0.29166667  0.12500000  0.00000000       0.010
  -0.29166667  0.41666667  0.00000000       0.010
   0.33333333  0.12500000  0.00000000       0.010
  -0.33333333  0.45833333  0.00000000       0.010
   0.37500000  0.12500000  0.00000000       0.010
  -0.37500000  0.50000000  0.00000000       0.010
   0.41666667  0.12500000  0.00000000       0.010
  -0.41666667 -0.45833333  0.00000000       0.010
   0.16666667  0.16666667  0.00000000       0.010
   0.20833333  0.16666667  0.00000000       0.010
  -0.20833333  0.37500000  0.00000000       0.010
   0.25000000  0.16666667  0.00000000       0.010
  -0.25000000  0.41666667  0.00000000       0.010
   0.29166667  0.16666667  0.00000000       0.010
  -0.29166667  0.45833333  0.00000000       0.010
   0.33333333  0.16666667  0.00000000       0.010
  -0.33333333  0.50000000  0.00000000       0.010
   0.37500000  0.16666667  0.00000000       0.010
  -0.37500000 -0.45833333  0.00000000       0.010
   0.41666667  0.16666667  0.00000000       0.010
   0.20833333  0.20833333  0.00000000       0.010
   0.25000000  0.20833333  0.00000000       0.010
  -0.25000000  0.45833333  0.00000000       0.010
   0.29166667  0.20833333  0.00000000       0.010
  -0.29166667  0.50000000  0.00000000       0.010
   0.33333333  0.20833333  0.00000000       0.010
  -0.33333333 -0.45833333  0.00000000       0.010
   0.37500000  0.20833333  0.00000000       0.010
  -0.37500000 -0.41666667  0.00000000       0.010
   0.25000000  0.25000000  0.00000000       0.010
   0.29166667  0.25000000  0.00000000       0.010
  -0.29166667 -0.45833333  0.00000000       0.010
   0.33333333  0.25000000  0.00000000       0.010
  -0.33333333 -0.41666667  0.00000000       0.010
   0.37500000  0.25000000  0.00000000       0.010
   0.29166667  0.29166667  0.00000000       0.010
   0.33333333  0.29166667  0.00000000       0.010
  -0.33333333 -0.37500000  0.00000000       0.010
   0.33333333  0.33333333  0.00000000       0.003
 
 position of ions in fractional coordinates (direct lattice) 
   0.00000091  0.99999936  0.36253688
   0.66666586  0.33333388  0.36284743
   0.97020455  0.66704631  0.43927293
   0.33295344  0.30315859  0.43927202
   0.69683946  0.02979833  0.43927243
   0.96967110  0.30337845  0.28602334
   0.69662072  0.66629678  0.28602425
   0.33370399  0.03032827  0.28602196
 
 position of ions in cartesian coordinates  (Angst):
  -3.08625492  5.34555681  6.51585202
   3.08625590  1.78185631  6.52143351
   3.92993187  3.56573624  7.89502415
   1.11953647  1.62055252  7.89500772
   4.20929358  0.15928879  7.89501518
   5.04901363  1.62172778  5.14067913
   2.24354205  3.56172957  5.14069535
   1.96619522  0.16212159  5.14065434
 


--------------------------------------------------------------------------------------------------------


 k-point   1 :   0.0000 0.0000 0.0000  plane waves:   16003
 k-point   2 :   0.0417 0.0000 0.0000  plane waves:   16003
 k-point   3 :   0.0833 0.0000 0.0000  plane waves:   15994
 k-point   4 :   0.1250 0.0000 0.0000  plane waves:   16008
 k-point   5 :   0.1667 0.0000 0.0000  plane waves:   16010
 k-point   6 :   0.2083 0.0000 0.0000  plane waves:   15998
 k-point   7 :   0.2500 0.0000 0.0000  plane waves:   16002
 k-point   8 :   0.2917 0.0000 0.0000  plane waves:   15992
 k-point   9 :   0.3333 0.0000 0.0000  plane waves:   15972
 k-point  10 :   0.3750 0.0000 0.0000  plane waves:   15962
 k-point  11 :   0.4167 0.0000 0.0000  plane waves:   15944
 k-point  12 :   0.4583 0.0000 0.0000  plane waves:   15942
 k-point  13 :   0.5000 0.0000 0.0000  plane waves:   15940
 k-point  14 :   0.0417 0.0417 0.0000  plane waves:   15993
 k-point  15 :   0.0833 0.0417 0.0000  plane waves:   16012
 k-point  16 :  -0.0833 0.1250 0.0000  plane waves:   16012
 k-point  17 :   0.1250 0.0417 0.0000  plane waves:   15998
 k-point  18 :  -0.1250 0.1667 0.0000  plane waves:   15998
 k-point  19 :   0.1667 0.0417 0.0000  plane waves:   15996
 k-point  20 :  -0.1667 0.2083 0.0000  plane waves:   15996
 k-point  21 :   0.2083 0.0417 0.0000  plane waves:   16005
 k-point  22 :  -0.2083 0.2500 0.0000  plane waves:   16005
 k-point  23 :   0.2500 0.0417 0.0000  plane waves:   15991
 k-point  24 :  -0.2500 0.2917 0.0000  plane waves:   15991
 k-point  25 :   0.2917 0.0417 0.0000  plane waves:   15995
 k-point  26 :  -0.2917 0.3333 0.0000  plane waves:   15995
 k-point  27 :   0.3333 0.0417 0.0000  plane waves:   15971
 k-point  28 :  -0.3333 0.3750 0.0000  plane waves:   15971
 k-point  29 :   0.3750 0.0417 0.0000  plane waves:   15970
 k-point  30 :  -0.3750 0.4167 0.0000  plane waves:   15970
 k-point  31 :   0.4167 0.0417 0.0000  plane waves:   15954
 k-point  32 :  -0.4167 0.4583 0.0000  plane waves:   15954
 k-point  33 :   0.4583 0.0417 0.0000  plane waves:   15951
 k-point  34 :  -0.4583 0.5000 0.0000  plane waves:   15951
 k-point  35 :   0.0833 0.0833 0.0000  plane waves:   15999
 k-point  36 :   0.1250 0.0833 0.0000  plane waves:   16023
 k-point  37 :  -0.1250 0.2083 0.0000  plane waves:   16023
 k-point  38 :   0.1667 0.0833 0.0000  plane waves:   15993
 k-point  39 :  -0.1667 0.2500 0.0000  plane waves:   15993
 k-point  40 :   0.2083 0.0833 0.0000  plane waves:   15987
 k-point  41 :  -0.2083 0.2917 0.0000  plane waves:   15987
 k-point  42 :   0.2500 0.0833 0.0000  plane waves:   15987
 k-point  43 :  -0.2500 0.3333 0.0000  plane waves:   15987
 k-point  44 :   0.2917 0.0833 0.0000  plane waves:   15974
 k-point  45 :  -0.2917 0.3750 0.0000  plane waves:   15974
 k-point  46 :   0.3333 0.0833 0.0000  plane waves:   15967
 k-point  47 :  -0.3333 0.4167 0.0000  plane waves:   15967
 k-point  48 :   0.3750 0.0833 0.0000  plane waves:   15950
 k-point  49 :  -0.3750 0.4583 0.0000  plane waves:   15950
 k-point  50 :   0.4167 0.0833 0.0000  plane waves:   15956
 k-point  51 :  -0.4167 0.5000 0.0000  plane waves:   15956
 k-point  52 :   0.4583 0.0833 0.0000  plane waves:   15956
 k-point  53 :   0.1250 0.1250 0.0000  plane waves:   16013
 k-point  54 :   0.1667 0.1250 0.0000  plane waves:   15987
 k-point  55 :  -0.1667 0.2917 0.0000  plane waves:   15987
 k-point  56 :   0.2083 0.1250 0.0000  plane waves:   15983
 k-point  57 :  -0.2083 0.3333 0.0000  plane waves:   15983
 k-point  58 :   0.2500 0.1250 0.0000  plane waves:   15971
 k-point  59 :  -0.2500 0.3750 0.0000  plane waves:   15971
 k-point  60 :   0.2917 0.1250 0.0000  plane waves:   15961
 k-point  61 :  -0.2917 0.4167 0.0000  plane waves:   15961
 k-point  62 :   0.3333 0.1250 0.0000  plane waves:   15960
 k-point  63 :  -0.3333 0.4583 0.0000  plane waves:   15960
 k-point  64 :   0.3750 0.1250 0.0000  plane waves:   15956
 k-point  65 :  -0.3750 0.5000 0.0000  plane waves:   15956
 k-point  66 :   0.4167 0.1250 0.0000  plane waves:   15951
 k-point  67 :  -0.4167-0.4583 0.0000  plane waves:   15951
 k-point  68 :   0.1667 0.1667 0.0000  plane waves:   15989
 k-point  69 :   0.2083 0.1667 0.0000  plane waves:   15984
 k-point  70 :  -0.2083 0.3750 0.0000  plane waves:   15984
 k-point  71 :   0.2500 0.1667 0.0000  plane waves:   15992
 k-point  72 :  -0.2500 0.4167 0.0000  plane waves:   15992
 k-point  73 :   0.2917 0.1667 0.0000  plane waves:   15965
 k-point  74 :  -0.2917 0.4583 0.0000  plane waves:   15965
 k-point  75 :   0.3333 0.1667 0.0000  plane waves:   15944
 k-point  76 :  -0.3333 0.5000 0.0000  plane waves:   15944
 k-point  77 :   0.3750 0.1667 0.0000  plane waves:   15951
 k-point  78 :  -0.3750-0.4583 0.0000  plane waves:   15951
 k-point  79 :   0.4167 0.1667 0.0000  plane waves:   15928
 k-point  80 :   0.2083 0.2083 0.0000  plane waves:   15975
 k-point  81 :   0.2500 0.2083 0.0000  plane waves:   15959
 k-point  82 :  -0.2500 0.4583 0.0000  plane waves:   15959
 k-point  83 :   0.2917 0.2083 0.0000  plane waves:   15944
 k-point  84 :  -0.2917 0.5000 0.0000  plane waves:   15944
 k-point  85 :   0.3333 0.2083 0.0000  plane waves:   15933
 k-point  86 :  -0.3333-0.4583 0.0000  plane waves:   15933
 k-point  87 :   0.3750 0.2083 0.0000  plane waves:   15949
 k-point  88 :  -0.3750-0.4167 0.0000  plane waves:   15949
 k-point  89 :   0.2500 0.2500 0.0000  plane waves:   15943
 k-point  90 :   0.2917 0.2500 0.0000  plane waves:   15913
 k-point  91 :  -0.2917-0.4583 0.0000  plane waves:   15913
 k-point  92 :   0.3333 0.2500 0.0000  plane waves:   15925
 k-point  93 :  -0.3333-0.4167 0.0000  plane waves:   15925
 k-point  94 :   0.3750 0.2500 0.0000  plane waves:   15938
 k-point  95 :   0.2917 0.2917 0.0000  plane waves:   15922
 k-point  96 :   0.3333 0.2917 0.0000  plane waves:   15916
 k-point  97 :  -0.3333-0.3750 0.0000  plane waves:   15916
 k-point  98 :   0.3333 0.3333 0.0000  plane waves:   15912

 maximum and minimum number of plane-waves per node :     16023    15912

 maximum number of plane-waves:     16023
 maximum index in each direction: 
   IXMAX=   11   IYMAX=   11   IZMAX=   33
   IXMIN=  -11   IYMIN=  -11   IZMIN=  -33


 serial   3D FFT for wavefunctions
 parallel 3D FFT for charge:
    minimum data exchange during FFTs selected (reduces bandwidth)


 total amount of memory used by VASP MPI-rank0  2826882. kBytes
=======================================================================

   base      :      30000. kBytes
   nonl-proj :     454284. kBytes
   fftplans  :      88392. kBytes
   grid      :     233496. kBytes
   one-center:        248. kBytes
   wavefun   :    2020462. kBytes
 
     INWAV:  cpu time      0.0001: real time      0.0003
 Broyden mixing: mesh for mixing (old mesh)
   NGX = 23   NGY = 23   NGZ = 67
  (NGX  = 96   NGY  = 96   NGZ  =280)
  gives a total of  35443 points

 initial charge density was supplied:
 charge density of overlapping atoms calculated
 number of electron      58.0000000 magnetization      12.0000000
 keeping initial charge density in first step


--------------------------------------------------------------------------------------------------------


 Maximum index for augmentation-charges         18812 (set IRDMAX)


--------------------------------------------------------------------------------------------------------


 First call to EWALD:  gamma=   0.211
 Maximum number of real-space cells 4x 4x 2
 Maximum number of reciprocal cells 2x 2x 5

    FEWALD:  cpu time      0.0009: real time      0.0009


--------------------------------------- Ionic step        1  -------------------------------------------




--------------------------------------- Iteration      1(   1)  ---------------------------------------


    POTLOK:  cpu time      0.0429: real time      0.0456
    SETDIJ:  cpu time      0.0303: real time      0.0304
     EDDAV:  cpu time      6.7734: real time      6.7913
       DOS:  cpu time      0.0048: real time      0.0048
    --------------------------------------------
      LOOP:  cpu time      6.8514: real time      6.8720

 eigenvalue-minimisations  : 15680
 total energy-change (2. order) : 0.5487891E+03  (-0.1991170E+04)
 number of electron      58.0000000 magnetization      12.0000000
 augmentation part       58.0000000 magnetization      12.0000000

 Free energy of the ion-electron system (eV)
  ---------------------------------------------------
  alpha Z        PSCENC =        34.60401783
  Ewald energy   TEWEN  =      5228.59774050
  -Hartree energ DENC   =     -8543.91268183
  -exchange      EXHF   =         0.00000000
  -V(xc)+E(xc)   XCENC  =       134.60667230
  PAW double counting   =      3052.26160663    -3045.71919405
  entropy T*S    EENTRO =        -0.00589148
  eigenvalues    EBANDS =        41.39016597
  atomic energy  EATOM  =      3646.96668234
  Solvation  Ediel_sol  =         0.00000000
  ---------------------------------------------------
  free energy    TOTEN  =       548.78911819 eV

  energy without entropy =      548.79500968  energy(sigma->0) =      548.79206393


--------------------------------------------------------------------------------------------------------




--------------------------------------- Iteration      1(   2)  ---------------------------------------


     EDDAV:  cpu time      8.4299: real time      8.4518
       DOS:  cpu time      0.0034: real time      0.0034
    --------------------------------------------
      LOOP:  cpu time      8.4333: real time      8.4552

 eigenvalue-minimisations  : 21520
 total energy-change (2. order) :-0.4714100E+03  (-0.4521821E+03)
 number of electron      58.0000000 magnetization      12.0000000
 augmentation part       58.0000000 magnetization      12.0000000

 Free energy of the ion-electron system (eV)
  ---------------------------------------------------
  alpha Z        PSCENC =        34.60401783
  Ewald energy   TEWEN  =      5228.59774050
  -Hartree energ DENC   =     -8543.91268183
  -exchange      EXHF   =         0.00000000
  -V(xc)+E(xc)   XCENC  =       134.60667230
  PAW double counting   =      3052.26160663    -3045.71919405
  entropy T*S    EENTRO =        -0.00000012
  eigenvalues    EBANDS =      -430.02572870
  atomic energy  EATOM  =      3646.96668234
  Solvation  Ediel_sol  =         0.00000000
  ---------------------------------------------------
  free energy    TOTEN  =        77.37911489 eV

  energy without entropy =       77.37911500  energy(sigma->0) =       77.37911494


--------------------------------------------------------------------------------------------------------




--------------------------------------- Iteration      1(   3)  ---------------------------------------


     EDDAV:  cpu time      7.5392: real time      7.5592
       DOS:  cpu time      0.0026: real time      0.0026
    --------------------------------------------
      LOOP:  cpu time      7.5418: real time      7.5618

 eigenvalue-minimisations  : 18736
 total energy-change (2. order) :-0.1128728E+03  (-0.1121573E+03)
 number of electron      58.0000000 magnetization      12.0000000
 augmentation part       58.0000000 magnetization      12.0000000

 Free energy of the ion-electron system (eV)
  ---------------------------------------------------
  alpha Z        PSCENC =        34.60401783
  Ewald energy   TEWEN  =      5228.59774050
  -Hartree energ DENC   =     -8543.91268183
  -exchange      EXHF   =         0.00000000
  -V(xc)+E(xc)   XCENC  =       134.60667230
  PAW double counting   =      3052.26160663    -3045.71919405
  entropy T*S    EENTRO =        -0.00000000
  eigenvalues    EBANDS =      -542.89852767
  atomic energy  EATOM  =      3646.96668234
  Solvation  Ediel_sol  =         0.00000000
  ---------------------------------------------------
  free energy    TOTEN  =       -35.49368397 eV

  energy without entropy =      -35.49368397  energy(sigma->0) =      -35.49368397


--------------------------------------------------------------------------------------------------------




--------------------------------------- Iteration      1(   4)  ---------------------------------------


     EDDAV:  cpu time      8.1987: real time      8.2205
       DOS:  cpu time      0.0026: real time      0.0026
    --------------------------------------------
      LOOP:  cpu time      8.2013: real time      8.2230

 eigenvalue-minimisations  : 20928
 total energy-change (2. order) :-0.4964083E+01  (-0.4951508E+01)
 number of electron      58.0000000 magnetization      12.0000000
 augmentation part       58.0000000 magnetization      12.0000000

 Free energy of the ion-electron system (eV)
  ---------------------------------------------------
  alpha Z        PSCENC =        34.60401783
  Ewald energy   TEWEN  =      5228.59774050
  -Hartree energ DENC   =     -8543.91268183
  -exchange      EXHF   =         0.00000000
  -V(xc)+E(xc)   XCENC  =       134.60667230
  PAW double counting   =      3052.26160663    -3045.71919405
  entropy T*S    EENTRO =        -0.00000000
  eigenvalues    EBANDS =      -547.86261086
  atomic energy  EATOM  =      3646.96668234
  Solvation  Ediel_sol  =         0.00000000
  ---------------------------------------------------
  free energy    TOTEN  =       -40.45776715 eV

  energy without entropy =      -40.45776715  energy(sigma->0) =      -40.45776715


--------------------------------------------------------------------------------------------------------




--------------------------------------- Iteration      1(   5)  ---------------------------------------


     EDDAV:  cpu time      8.5503: real time      8.5731
       DOS:  cpu time      0.0026: real time      0.0026
    CHARGE:  cpu time      0.7972: real time      0.7991
    MIXING:  cpu time      0.0232: real time      0.0232
    --------------------------------------------
      LOOP:  cpu time      9.3734: real time      9.3980

 eigenvalue-minimisations  : 22128
 total energy-change (2. order) :-0.1255612E+00  (-0.1255166E+00)
 number of electron      58.0000019 magnetization      11.6515057
 augmentation part        0.7770609 magnetization       8.1502122

 Broyden mixing:
  rms(total) = 0.23166E+01    rms(broyden)= 0.23166E+01
  rms(prec ) = 0.25233E+01
  weight for this iteration     100.00

 Free energy of the ion-electron system (eV)
  ---------------------------------------------------
  alpha Z        PSCENC =        34.60401783
  Ewald energy   TEWEN  =      5228.59774050
  -Hartree energ DENC   =     -8543.91268183
  -exchange      EXHF   =         0.00000000
  -V(xc)+E(xc)   XCENC  =       134.60667230
  PAW double counting   =      3052.26160663    -3045.71919405
  entropy T*S    EENTRO =        -0.00000000
  eigenvalues    EBANDS =      -547.98817206
  atomic energy  EATOM  =      3646.96668234
  Solvation  Ediel_sol  =         0.00000000
  ---------------------------------------------------
  free energy    TOTEN  =       -40.58332835 eV

  energy without entropy =      -40.58332835  energy(sigma->0) =      -40.58332835


--------------------------------------------------------------------------------------------------------




--------------------------------------- Iteration      1(   6)  ---------------------------------------


    POTLOK:  cpu time      0.0250: real time      0.0256
    SETDIJ:  cpu time      0.0330: real time      0.0331
     EDDAV:  cpu time      8.7138: real time      8.7359
       DOS:  cpu time      0.0046: real time      0.0046
    CHARGE:  cpu time      0.7847: real time      0.7866
    MIXING:  cpu time      0.0245: real time      0.0245
    --------------------------------------------
      LOOP:  cpu time      9.5855: real time      9.6104

 eigenvalue-minimisations  : 22840
 total energy-change (2. order) : 0.1089999E+02  (-0.4236053E+01)
 number of electron      58.0000023 magnetization      11.6034261
 augmentation part        3.6751090 magnetization       6.9615456

 Broyden mixing:
  rms(total) = 0.40563E+01    rms(broyden)= 0.40563E+01
  rms(prec ) = 0.40879E+01
  weight for this iteration     100.00

 eigenvalues of (default mixing * dielectric matrix)
  average eigenvalue GAMMA=   0.0700
  0.0700

 Free energy of the ion-electron system (eV)
  ---------------------------------------------------
  alpha Z        PSCENC =        34.60401783
  Ewald energy   TEWEN  =      5228.59774050
  -Hartree energ DENC   =     -8486.18494682
  -exchange      EXHF   =         0.00000000
  -V(xc)+E(xc)   XCENC  =       134.75984669
  PAW double counting   =      3357.39329519    -3346.92210197
  entropy T*S    EENTRO =        -0.00052397
  eigenvalues    EBANDS =      -598.89734779
  atomic energy  EATOM  =      3646.96668234
  Solvation  Ediel_sol  =         0.00000000
  ---------------------------------------------------
  free energy    TOTEN  =       -29.68333800 eV

  energy without entropy =      -29.68281403  energy(sigma->0) =      -29.68307601


--------------------------------------------------------------------------------------------------------




--------------------------------------- Iteration      1(   7)  ---------------------------------------


    POTLOK:  cpu time      0.0249: real time      0.0252
    SETDIJ:  cpu time      0.0332: real time      0.0333
     EDDAV:  cpu time      8.2367: real time      8.2583
       DOS:  cpu time      0.0026: real time      0.0026
    CHARGE:  cpu time      0.7779: real time      0.7796
    MIXING:  cpu time      0.0258: real time      0.0259
    --------------------------------------------
      LOOP:  cpu time      9.1011: real time      9.1250

 eigenvalue-minimisations  : 21112
 total energy-change (2. order) :-0.4612707E+00  (-0.8741454E+00)
 number of electron      58.0000021 magnetization      11.3446344
 augmentation part        3.1358721 magnetization       7.2137369

 Broyden mixing:
  rms(total) = 0.28314E+01    rms(broyden)= 0.28314E+01
  rms(prec ) = 0.28456E+01
  weight for this iteration     100.00

 eigenvalues of (default mixing * dielectric matrix)
  average eigenvalue GAMMA=   0.5039
  0.5039  0.5039

 Free energy of the ion-electron system (eV)
  ---------------------------------------------------
  alpha Z        PSCENC =        34.60401783
  Ewald energy   TEWEN  =      5228.59774050
  -Hartree energ DENC   =     -8492.03633541
  -exchange      EXHF   =         0.00000000
  -V(xc)+E(xc)   XCENC  =       134.07686252
  PAW double counting   =      3427.28000890    -3419.21786083
  entropy T*S    EENTRO =        -0.00000000
  eigenvalues    EBANDS =      -590.41572457
  atomic energy  EATOM  =      3646.96668234
  Solvation  Ediel_sol  =         0.00000000
  ---------------------------------------------------
  free energy    TOTEN  =       -30.14460873 eV

  energy without entropy =      -30.14460873  energy(sigma->0) =      -30.14460873


--------------------------------------------------------------------------------------------------------




--------------------------------------- Iteration      1(   8)  ---------------------------------------


    POTLOK:  cpu time      0.0250: real time      0.0260
    SETDIJ:  cpu time      0.0330: real time      0.0331
     EDDAV:  cpu time      8.3854: real time      8.4078
       DOS:  cpu time      0.0026: real time      0.0026
    CHARGE:  cpu time      0.7735: real time      0.7752
    MIXING:  cpu time      0.0254: real time      0.0255
    --------------------------------------------
      LOOP:  cpu time      9.2449: real time      9.2702

 eigenvalue-minimisations  : 21672
 total energy-change (2. order) : 0.6187081E+00  (-0.1236560E+00)
 number of electron      58.0000021 magnetization      10.8442248
 augmentation part        2.8854296 magnetization       7.0018605

 Broyden mixing:
  rms(total) = 0.22694E+01    rms(broyden)= 0.22694E+01
  rms(prec ) = 0.22754E+01
  weight for this iteration     100.00

 eigenvalues of (default mixing * dielectric matrix)
  average eigenvalue GAMMA=   0.8721
  0.3576  0.7718  1.4868

 Free energy of the ion-electron system (eV)
  ---------------------------------------------------
  alpha Z        PSCENC =        34.60401783
  Ewald energy   TEWEN  =      5228.59774050
  -Hartree energ DENC   =     -8483.32478410
  -exchange      EXHF   =         0.00000000
  -V(xc)+E(xc)   XCENC  =       135.44921161
  PAW double counting   =      3827.64781743    -3821.24085278
  entropy T*S    EENTRO =        -0.00000000
  eigenvalues    EBANDS =      -598.22573345
  atomic energy  EATOM  =      3646.96668234
  Solvation  Ediel_sol  =         0.00000000
  ---------------------------------------------------
  free energy    TOTEN  =       -29.52590063 eV

  energy without entropy =      -29.52590063  energy(sigma->0) =      -29.52590063


--------------------------------------------------------------------------------------------------------




--------------------------------------- Iteration      1(   9)  ---------------------------------------


    POTLOK:  cpu time      0.0232: real time      0.0245
    SETDIJ:  cpu time      0.0329: real time      0.0330
     EDDAV:  cpu time      7.8490: real time      7.8699
       DOS:  cpu time      0.0025: real time      0.0025
    CHARGE:  cpu time      0.7814: real time      0.7834
    MIXING:  cpu time      0.0268: real time      0.0269
    --------------------------------------------
      LOOP:  cpu time      8.7158: real time      8.7400

 eigenvalue-minimisations  : 19816
 total energy-change (2. order) : 0.4196860E+00  (-0.7530431E-01)
 number of electron      58.0000021 magnetization      10.7333200
 augmentation part        2.9978118 magnetization       6.7612491

 Broyden mixing:
  rms(total) = 0.12028E+01    rms(broyden)= 0.12028E+01
  rms(prec ) = 0.12284E+01
  weight for this iteration     100.00

 eigenvalues of (default mixing * dielectric matrix)
  average eigenvalue GAMMA=   0.9521
  1.4312  1.4312  0.3940  0.5519

 Free energy of the ion-electron system (eV)
  ---------------------------------------------------
  alpha Z        PSCENC =        34.60401783
  Ewald energy   TEWEN  =      5228.59774050
  -Hartree energ DENC   =     -8471.00639397
  -exchange      EXHF   =         0.00000000
  -V(xc)+E(xc)   XCENC  =       135.68201311
  PAW double counting   =      4404.51161876    -4403.73481632
  entropy T*S    EENTRO =        -0.00000000
  eigenvalues    EBANDS =      -604.72707684
  atomic energy  EATOM  =      3646.96668234
  Solvation  Ediel_sol  =         0.00000000
  ---------------------------------------------------
  free energy    TOTEN  =       -29.10621459 eV

  energy without entropy =      -29.10621459  energy(sigma->0) =      -29.10621459


--------------------------------------------------------------------------------------------------------




--------------------------------------- Iteration      1(  10)  ---------------------------------------


    POTLOK:  cpu time      0.0226: real time      0.0230
    SETDIJ:  cpu time      0.0332: real time      0.0332
     EDDAV:  cpu time      7.8046: real time      7.8253
       DOS:  cpu time      0.0026: real time      0.0026
    CHARGE:  cpu time      0.7753: real time      0.7773
    MIXING:  cpu time      0.0273: real time      0.0274
    --------------------------------------------
      LOOP:  cpu time      8.6656: real time      8.6888

 eigenvalue-minimisations  : 19616
 total energy-change (2. order) :-0.5284705E+00  (-0.1200429E+00)
 number of electron      58.0000020 magnetization      10.6445732
 augmentation part        2.6749710 magnetization       6.7828006

 Broyden mixing:
  rms(total) = 0.46904E+00    rms(broyden)= 0.46903E+00
  rms(prec ) = 0.47857E+00
  weight for this iteration     100.00

 eigenvalues of (default mixing * dielectric matrix)
  average eigenvalue GAMMA=   1.0273
  1.6746  1.6746  0.3844  0.8137  0.5893

 Free energy of the ion-electron system (eV)
  ---------------------------------------------------
  alpha Z        PSCENC =        34.60401783
  Ewald energy   TEWEN  =      5228.59774050
  -Hartree energ DENC   =     -8481.56986641
  -exchange      EXHF   =         0.00000000
  -V(xc)+E(xc)   XCENC  =       133.97545475
  PAW double counting   =      4369.22051212    -4370.53375994
  entropy T*S    EENTRO =        -0.00000000
  eigenvalues    EBANDS =      -590.89546627
  atomic energy  EATOM  =      3646.96668234
  Solvation  Ediel_sol  =         0.00000000
  ---------------------------------------------------
  free energy    TOTEN  =       -29.63468508 eV

  energy without entropy =      -29.63468508  energy(sigma->0) =      -29.63468508


--------------------------------------------------------------------------------------------------------




--------------------------------------- Iteration      1(  11)  ---------------------------------------


    POTLOK:  cpu time      0.0248: real time      0.0252
    SETDIJ:  cpu time      0.0333: real time      0.0334
     EDDAV:  cpu time      8.9205: real time      8.9438
       DOS:  cpu time      0.0026: real time      0.0026
    CHARGE:  cpu time      0.7774: real time      0.7793
    MIXING:  cpu time      0.0309: real time      0.0310
    --------------------------------------------
      LOOP:  cpu time      9.7895: real time      9.8153

 eigenvalue-minimisations  : 23440
 total energy-change (2. order) :-0.1854335E+00  (-0.2720446E-01)
 number of electron      58.0000020 magnetization      10.4187042
 augmentation part        2.4973864 magnetization       6.6459522

 Broyden mixing:
  rms(total) = 0.25269E+00    rms(broyden)= 0.25268E+00
  rms(prec ) = 0.25536E+00
  weight for this iteration     100.00

 eigenvalues of (default mixing * dielectric matrix)
  average eigenvalue GAMMA=   1.1503
  2.4546  1.4024  1.4024  0.3824  0.6300  0.6300

 Free energy of the ion-electron system (eV)
  ---------------------------------------------------
  alpha Z        PSCENC =        34.60401783
  Ewald energy   TEWEN  =      5228.59774050
  -Hartree energ DENC   =     -8487.75103640
  -exchange      EXHF   =         0.00000000
  -V(xc)+E(xc)   XCENC  =       133.88108791
  PAW double counting   =      4329.91340322    -4332.03885207
  entropy T*S    EENTRO =        -0.00000000
  eigenvalues    EBANDS =      -583.99316193
  atomic energy  EATOM  =      3646.96668234
  Solvation  Ediel_sol  =         0.00000000
  ---------------------------------------------------
  free energy    TOTEN  =       -29.82011861 eV

  energy without entropy =      -29.82011861  energy(sigma->0) =      -29.82011861


--------------------------------------------------------------------------------------------------------




--------------------------------------- Iteration      1(  12)  ---------------------------------------


    POTLOK:  cpu time      0.0229: real time      0.0233
    SETDIJ:  cpu time      0.0329: real time      0.0330
     EDDAV:  cpu time      8.8238: real time      8.8460
       DOS:  cpu time      0.0025: real time      0.0025
    CHARGE:  cpu time      0.7746: real time      0.7764
    MIXING:  cpu time      0.0318: real time      0.0319
    --------------------------------------------
      LOOP:  cpu time      9.6885: real time      9.7132

 eigenvalue-minimisations  : 23112
 total energy-change (2. order) :-0.5407624E-01  (-0.1302002E-01)
 number of electron      58.0000020 magnetization      10.3393328
 augmentation part        2.6080360 magnetization       6.4934306

 Broyden mixing:
  rms(total) = 0.17698E+00    rms(broyden)= 0.17698E+00
  rms(prec ) = 0.18410E+00
  weight for this iteration     100.00

 eigenvalues of (default mixing * dielectric matrix)
  average eigenvalue GAMMA=   1.1608
  2.4511  1.5922  1.5922  0.3825  0.7498  0.6789  0.6789

 Free energy of the ion-electron system (eV)
  ---------------------------------------------------
  alpha Z        PSCENC =        34.60401783
  Ewald energy   TEWEN  =      5228.59774050
  -Hartree energ DENC   =     -8488.34817390
  -exchange      EXHF   =         0.00000000
  -V(xc)+E(xc)   XCENC  =       134.06569012
  PAW double counting   =      4393.35333583    -4396.13467669
  entropy T*S    EENTRO =        -0.00000000
  eigenvalues    EBANDS =      -582.97881089
  atomic energy  EATOM  =      3646.96668234
  Solvation  Ediel_sol  =         0.00000000
  ---------------------------------------------------
  free energy    TOTEN  =       -29.87419485 eV

  energy without entropy =      -29.87419485  energy(sigma->0) =      -29.87419485


--------------------------------------------------------------------------------------------------------




--------------------------------------- Iteration      1(  13)  ---------------------------------------


    POTLOK:  cpu time      0.0247: real time      0.0250
    SETDIJ:  cpu time      0.0331: real time      0.0332
     EDDAV:  cpu time      8.5740: real time      8.5968
       DOS:  cpu time      0.0026: real time      0.0026
    CHARGE:  cpu time      0.7774: real time      0.7795
    MIXING:  cpu time      0.0310: real time      0.0311
    --------------------------------------------
      LOOP:  cpu time      9.4428: real time      9.4682

 eigenvalue-minimisations  : 22256
 total energy-change (2. order) :-0.1681167E+00  (-0.7361647E-02)
 number of electron      58.0000020 magnetization      10.2761013
 augmentation part        2.5254179 magnetization       6.4693156

 Broyden mixing:
  rms(total) = 0.34340E-01    rms(broyden)= 0.34334E-01
  rms(prec ) = 0.34843E-01
  weight for this iteration     100.00

 eigenvalues of (default mixing * dielectric matrix)
  average eigenvalue GAMMA=   1.1441
  2.4243  1.6122  1.6122  1.1090  0.3824  0.7557  0.6284  0.6284

 Free energy of the ion-electron system (eV)
  ---------------------------------------------------
  alpha Z        PSCENC =        34.60401783
  Ewald energy   TEWEN  =      5228.59774050
  -Hartree energ DENC   =     -8491.28366233
  -exchange      EXHF   =         0.00000000
  -V(xc)+E(xc)   XCENC  =       133.67355764
  PAW double counting   =      4363.40559921    -4366.38161046
  entropy T*S    EENTRO =        -0.00000000
  eigenvalues    EBANDS =      -579.62463624
  atomic energy  EATOM  =      3646.96668234
  Solvation  Ediel_sol  =         0.00000000
  ---------------------------------------------------
  free energy    TOTEN  =       -30.04231152 eV

  energy without entropy =      -30.04231152  energy(sigma->0) =      -30.04231152


--------------------------------------------------------------------------------------------------------




--------------------------------------- Iteration      1(  14)  ---------------------------------------


    POTLOK:  cpu time      0.0230: real time      0.0233
    SETDIJ:  cpu time      0.0333: real time      0.0333
     EDDAV:  cpu time      8.4476: real time      8.4697
       DOS:  cpu time      0.0025: real time      0.0025
    CHARGE:  cpu time      0.7748: real time      0.7765
    MIXING:  cpu time      0.0341: real time      0.0342
    --------------------------------------------
      LOOP:  cpu time      9.3152: real time      9.3396

 eigenvalue-minimisations  : 21880
 total energy-change (2. order) :-0.6897632E-01  (-0.1458942E-02)
 number of electron      58.0000020 magnetization      10.2338818
 augmentation part        2.5049462 magnetization       6.4362724

 Broyden mixing:
  rms(total) = 0.28348E-01    rms(broyden)= 0.28345E-01
  rms(prec ) = 0.29155E-01
  weight for this iteration     100.00

 eigenvalues of (default mixing * dielectric matrix)
  average eigenvalue GAMMA=   1.1049
  2.5119  1.6412  1.6412  0.3824  0.9098  0.9098  0.6064  0.6704  0.6704

 Free energy of the ion-electron system (eV)
  ---------------------------------------------------
  alpha Z        PSCENC =        34.60401783
  Ewald energy   TEWEN  =      5228.59774050
  -Hartree energ DENC   =     -8491.62960909
  -exchange      EXHF   =         0.00000000
  -V(xc)+E(xc)   XCENC  =       133.59328947
  PAW double counting   =      4353.95147445    -4356.92750099
  entropy T*S    EENTRO =        -0.00000000
  eigenvalues    EBANDS =      -579.26738234
  atomic energy  EATOM  =      3646.96668234
  Solvation  Ediel_sol  =         0.00000000
  ---------------------------------------------------
  free energy    TOTEN  =       -30.11128784 eV

  energy without entropy =      -30.11128784  energy(sigma->0) =      -30.11128784


--------------------------------------------------------------------------------------------------------




--------------------------------------- Iteration      1(  15)  ---------------------------------------


    POTLOK:  cpu time      0.0250: real time      0.0256
    SETDIJ:  cpu time      0.0332: real time      0.0333
     EDDAV:  cpu time      7.6577: real time      7.6774
       DOS:  cpu time      0.0026: real time      0.0026
    CHARGE:  cpu time      0.7763: real time      0.7782
    MIXING:  cpu time      0.0352: real time      0.0353
    --------------------------------------------
      LOOP:  cpu time      8.5300: real time      8.5524

 eigenvalue-minimisations  : 19104
 total energy-change (2. order) :-0.1948567E-01  (-0.2791326E-03)
 number of electron      58.0000020 magnetization      10.1363942
 augmentation part        2.5155201 magnetization       6.3358349

 Broyden mixing:
  rms(total) = 0.22282E-01    rms(broyden)= 0.22282E-01
  rms(prec ) = 0.22428E-01
  weight for this iteration     100.00

 eigenvalues of (default mixing * dielectric matrix)
  average eigenvalue GAMMA=   1.1313
  2.5480  1.6725  1.6725  1.1766  0.9564  0.9564  0.3824  0.6809  0.6338  0.6338

 Free energy of the ion-electron system (eV)
  ---------------------------------------------------
  alpha Z        PSCENC =        34.60401783
  Ewald energy   TEWEN  =      5228.59774050
  -Hartree energ DENC   =     -8491.11792074
  -exchange      EXHF   =         0.00000000
  -V(xc)+E(xc)   XCENC  =       133.58878038
  PAW double counting   =      4352.97335473    -4355.95163818
  entropy T*S    EENTRO =        -0.00000000
  eigenvalues    EBANDS =      -579.79179036
  atomic energy  EATOM  =      3646.96668234
  Solvation  Ediel_sol  =         0.00000000
  ---------------------------------------------------
  free energy    TOTEN  =       -30.13077350 eV

  energy without entropy =      -30.13077350  energy(sigma->0) =      -30.13077350


--------------------------------------------------------------------------------------------------------




--------------------------------------- Iteration      1(  16)  ---------------------------------------


    POTLOK:  cpu time      0.0227: real time      0.0230
    SETDIJ:  cpu time      0.0332: real time      0.0333
     EDDAV:  cpu time      7.3218: real time      7.3410
       DOS:  cpu time      0.0026: real time      0.0026
    CHARGE:  cpu time      0.7801: real time      0.7823
    MIXING:  cpu time      0.0347: real time      0.0348
    --------------------------------------------
      LOOP:  cpu time      8.1951: real time      8.2170

 eigenvalue-minimisations  : 17936
 total energy-change (2. order) :-0.6245305E-01  (-0.7206636E-03)
 number of electron      58.0000020 magnetization      10.0473268
 augmentation part        2.5136128 magnetization       6.2491620

 Broyden mixing:
  rms(total) = 0.16114E-01    rms(broyden)= 0.16114E-01
  rms(prec ) = 0.16353E-01
  weight for this iteration     100.00

[...]
     15      -7.2248      1.00000
     16      -6.7927      1.00000
     17      -6.6341      1.00000
     18      -6.3265      1.00000
     19      -6.2430      1.00000
     20      -6.0198      1.00000
     21      -5.9304      1.00000
     22      -5.8490      1.00000
     23      -5.6400      1.00000
     24      -5.6365      1.00000
     25      -3.3498      0.00000
     26      -3.3082      0.00000
     27      -3.2775      0.00000
     28      -3.2180      0.00000
     29      -3.1571      0.00000
     30      -3.0820      0.00000
     31      -2.8938      0.00000
     32      -2.8163      0.00000
     33      -2.7918      0.00000
     34      -2.7352      0.00000
     35       2.5114      0.00000
     36       2.6286      0.00000
     37       2.9024      0.00000
     38       3.2632      0.00000
     39       3.2653      0.00000
     40       3.4625      0.00000

 k-point    96 :       0.3333    0.2917    0.0000
  band No.  band energies     occupation 
      1     -18.8389      1.00000
      2     -18.7691      1.00000
      3     -18.4540      1.00000
      4     -18.3231      1.00000
      5     -18.2991      1.00000
      6     -18.2183      1.00000
      7      -8.7414      1.00000
      8      -8.6283      1.00000
      9      -8.0840      1.00000
     10      -8.0252      1.00000
     11      -7.9808      1.00000
     12      -7.6595      1.00000
     13      -7.6473      1.00000
     14      -7.5210      1.00000
     15      -7.2668      1.00000
     16      -6.7980      1.00000
     17      -6.5718      1.00000
     18      -6.3203      1.00000
     19      -6.2583      1.00000
     20      -6.0310      1.00000
     21      -5.9372      1.00000
     22      -5.8441      1.00000
     23      -5.6446      1.00000
     24      -5.6373      1.00000
     25      -3.3360      0.00000
     26      -3.3064      0.00000
     27      -3.2866      0.00000
     28      -3.2292      0.00000
     29      -3.1452      0.00000
     30      -3.1001      0.00000
     31      -2.8921      0.00000
     32      -2.8070      0.00000
     33      -2.7933      0.00000
     34      -2.7305      0.00000
     35       2.5189      0.00000
     36       2.6036      0.00000
     37       3.0101      0.00000
     38       3.1650      0.00000
     39       3.2655      0.00000
     40       3.5790      0.00000

 k-point    97 :      -0.3333   -0.3750    0.0000
  band No.  band energies     occupation 
      1     -18.8389      1.00000
      2     -18.7691      1.00000
      3     -18.4540      1.00000
      4     -18.3232      1.00000
      5     -18.2990      1.00000
      6     -18.2183      1.00000
      7      -8.7414      1.00000
      8      -8.6283      1.00000
      9      -8.0840      1.00000
     10      -8.0252      1.00000
     11      -7.9808      1.00000
     12      -7.6596      1.00000
     13      -7.6471      1.00000
     14      -7.5210      1.00000
     15      -7.2668      1.00000
     16      -6.7980      1.00000
     17      -6.5718      1.00000
     18      -6.3202      1.00000
     19      -6.2584      1.00000
     20      -6.0309      1.00000
     21      -5.9373      1.00000
     22      -5.8441      1.00000
     23      -5.6447      1.00000
     24      -5.6373      1.00000
     25      -3.3360      0.00000
     26      -3.3064      0.00000
     27      -3.2866      0.00000
     28      -3.2292      0.00000
     29      -3.1452      0.00000
     30      -3.1001      0.00000
     31      -2.8921      0.00000
     32      -2.8070      0.00000
     33      -2.7933      0.00000
     34      -2.7305      0.00000
     35       2.5189      0.00000
     36       2.6036      0.00000
     37       3.0101      0.00000
     38       3.1650      0.00000
     39       3.2655      0.00000
     40       3.5790      0.00000

 k-point    98 :       0.3333    0.3333    0.0000
  band No.  band energies     occupation 
      1     -18.8036      1.00000
      2     -18.8035      1.00000
      3     -18.4559      1.00000
      4     -18.3106      1.00000
      5     -18.3106      1.00000
      6     -18.2190      1.00000
      7      -8.6815      1.00000
      8      -8.6815      1.00000
      9      -8.0497      1.00000
     10      -8.0496      1.00000
     11      -7.9977      1.00000
     12      -7.6510      1.00000
     13      -7.6509      1.00000
     14      -7.5218      1.00000
     15      -7.2846      1.00000
     16      -6.8000      1.00000
     17      -6.5417      1.00000
     18      -6.2934      1.00000
     19      -6.2933      1.00000
     20      -5.9844      1.00000
     21      -5.9843      1.00000
     22      -5.8448      1.00000
     23      -5.6431      1.00000
     24      -5.6430      1.00000
     25      -3.3258      0.00000
     26      -3.2970      0.00000
     27      -3.2970      0.00000
     28      -3.2385      0.00000
     29      -3.1251      0.00000
     30      -3.1251      0.00000
     31      -2.8904      0.00000
     32      -2.7985      0.00000
     33      -2.7985      0.00000
     34      -2.7276      0.00000
     35       2.5558      0.00000
     36       2.5559      0.00000
     37       3.0930      0.00000
     38       3.0930      0.00000
     39       3.2595      0.00000
     40       3.6709      0.00000


--------------------------------------------------------------------------------------------------------


 soft charge-density along one line, spin component            1
         0         1         2         3         4         5         6         7         8         9
 total charge-density along one line
 
 soft charge-density along one line, spin component            2
         0         1         2         3         4         5         6         7         8         9
 total charge-density along one line
 
 pseudopotential strength for first ion, spin component:            1
-16.006   0.019   0.000  -0.000   0.000 -16.321   0.016   0.000
  0.019 -15.983  -0.000  -0.000  -0.000   0.016 -16.301  -0.000
  0.000  -0.000 -16.019  -0.000  -0.000   0.000  -0.000 -16.332
 -0.000  -0.000  -0.000 -15.983  -0.019  -0.000  -0.000  -0.000
  0.000  -0.000  -0.000  -0.019 -16.006   0.000  -0.000  -0.000
-16.321   0.016   0.000  -0.000   0.000 -16.617   0.012   0.000
  0.016 -16.301  -0.000  -0.000  -0.000   0.012 -16.601  -0.000
  0.000  -0.000 -16.332  -0.000  -0.000   0.000  -0.000 -16.625
 -0.000  -0.000  -0.000 -16.301  -0.016  -0.000  -0.000  -0.000
  0.000  -0.000  -0.000  -0.016 -16.321   0.000  -0.000  -0.000
  0.000   0.000  -0.001   0.000  -0.000   0.000   0.000  -0.001
  0.000   0.000  -0.001   0.000  -0.000   0.000   0.000  -0.001
 -0.000   0.000   0.000  -0.000   0.001  -0.000   0.000   0.000
 -0.000  -0.000   0.000   0.000  -0.000  -0.000  -0.000   0.000
  0.001  -0.000  -0.000   0.000   0.000   0.001  -0.000  -0.000
 -0.000   0.000   0.000  -0.000   0.002  -0.000   0.000   0.000
 -0.000  -0.000   0.000   0.000  -0.000  -0.000  -0.000   0.000
  0.002  -0.000  -0.000   0.000   0.000   0.002  -0.000  -0.000
 pseudopotential strength for first ion, spin component:            2
-10.367  -0.522   0.000   0.001   0.000 -10.719  -0.529   0.000
 -0.522 -10.777  -0.000  -0.000   0.001  -0.529 -11.135  -0.000
  0.000  -0.000  -9.958  -0.000  -0.000   0.000  -0.000 -10.305
  0.001  -0.000  -0.000 -10.777   0.522   0.001  -0.000  -0.000
  0.000   0.001  -0.000   0.522 -10.367   0.000   0.001  -0.000
-10.719  -0.529   0.000   0.001   0.000 -11.021  -0.541   0.000
 -0.529 -11.135  -0.000  -0.000   0.001  -0.541 -11.446  -0.000
  0.000  -0.000 -10.305  -0.000  -0.000   0.000  -0.000 -10.599
  0.001  -0.000  -0.000 -11.135   0.529   0.001  -0.000  -0.000
  0.000   0.001  -0.000   0.529 -10.719   0.000   0.001  -0.000
  0.000   0.000  -0.000   0.000  -0.000   0.000   0.000  -0.000
  0.000   0.000  -0.000   0.000  -0.000   0.000   0.000  -0.000
  0.000   0.000   0.000  -0.000  -0.002   0.000   0.000   0.000
 -0.000  -0.000   0.000   0.000  -0.000  -0.000  -0.000   0.000
 -0.002  -0.000  -0.000   0.000  -0.000  -0.002  -0.000  -0.000
  0.000   0.000   0.000  -0.000  -0.002   0.000   0.000   0.000
 -0.000  -0.000   0.000   0.000  -0.000  -0.000  -0.000   0.000
 -0.002  -0.000  -0.000   0.000  -0.000  -0.002  -0.000  -0.000
 total augmentation occupancy for first ion, spin component:            1
  7.023   2.299  -0.000  -0.002   0.000  -4.847  -2.237   0.000   0.002  -0.000  -0.000   0.000   0.001   0.000  -0.104  -0.000
  2.299   8.651  -0.000   0.000  -0.002  -2.238  -6.418   0.000  -0.000   0.002  -0.000   0.000   0.001   0.000  -0.002  -0.000
 -0.000  -0.000   5.284   0.000  -0.000   0.000   0.000  -3.149  -0.000   0.000   0.036  -0.003   0.000  -0.000   0.000  -0.000
 -0.002   0.000   0.000   8.651  -2.299   0.002   0.000  -0.000  -6.418   2.238   0.000   0.000   0.002   0.000   0.001  -0.000
  0.000  -0.002  -0.000  -2.299   7.023   0.000   0.002   0.000   2.237  -4.847  -0.000   0.000  -0.104   0.000  -0.001   0.007
 -4.847  -2.238   0.000   0.002   0.000   3.912   2.309  -0.000  -0.002   0.000   0.000  -0.000  -0.001  -0.000   0.112   0.000
 -2.237  -6.418   0.000   0.000   0.002   2.309   5.531  -0.000   0.000  -0.002   0.000   0.000  -0.001   0.000  -0.003   0.000
  0.000   0.000  -3.149  -0.000   0.000  -0.000  -0.000   2.150   0.000  -0.000  -0.038   0.004  -0.000   0.000  -0.000   0.000
  0.002  -0.000  -0.000  -6.418   2.237  -0.002   0.000   0.000   5.531  -2.309   0.000  -0.000   0.003  -0.000  -0.001  -0.000
 -0.000   0.002   0.000   2.238  -4.847   0.000  -0.002  -0.000  -2.309   3.912   0.000  -0.000   0.112  -0.000   0.001  -0.010
 -0.000   0.000   0.036   0.000  -0.000   0.000   0.000  -0.038  -0.000   0.000   1.513  -0.148   0.000  -0.000  -0.000   0.000
  0.000   0.000  -0.003   0.000   0.000  -0.000   0.000   0.004   0.000  -0.000  -0.148   0.031   0.000   0.000  -0.000   0.000
  0.001   0.001   0.000   0.002  -0.104  -0.001  -0.001  -0.000   0.003   0.112   0.000   0.000   0.227  -0.000   0.000  -0.020
  0.000   0.000  -0.000   0.000   0.000  -0.000   0.000   0.000  -0.000  -0.000  -0.000   0.000   0.000   0.224   0.000  -0.000
 -0.104  -0.002   0.000   0.001  -0.001   0.112  -0.003  -0.000  -0.001   0.001  -0.000  -0.000   0.000  -0.000   0.227  -0.000
 -0.000  -0.000  -0.000  -0.000   0.007   0.000   0.000   0.000  -0.000  -0.010   0.000   0.000  -0.020  -0.000  -0.000   0.003
  0.000   0.000  -0.000   0.000   0.000  -0.000   0.000   0.000  -0.000  -0.000   0.000  -0.000  -0.000  -0.020   0.000   0.000
  0.007   0.000  -0.000  -0.000   0.000  -0.010   0.000   0.000   0.000  -0.000   0.000   0.000   0.000   0.000  -0.020   0.000
 total augmentation occupancy for first ion, spin component:            2
  6.669   2.010  -0.000  -0.002   0.000  -4.309  -1.846   0.000   0.002   0.000  -0.000  -0.000   0.000   0.000  -0.046   0.000
  2.010   8.113  -0.000   0.000  -0.002  -1.846  -5.641   0.000   0.000   0.002   0.000  -0.000   0.000   0.000   0.006  -0.000
 -0.000  -0.000   5.150   0.000  -0.000   0.000   0.000  -2.914  -0.000   0.000   0.006   0.002   0.000  -0.000   0.000   0.000
 -0.002   0.000   0.000   8.113  -2.010   0.002  -0.000  -0.000  -5.641   1.846   0.000   0.000  -0.006   0.000   0.000   0.001
  0.000  -0.002  -0.000  -2.010   6.669  -0.000   0.002   0.000   1.846  -4.309  -0.000  -0.000  -0.046   0.000  -0.000  -0.003
 -4.309  -1.846   0.000   0.002  -0.000   2.884   1.562  -0.000  -0.001   0.000   0.000   0.000  -0.000  -0.000   0.031  -0.000
 -1.846  -5.641   0.000  -0.000   0.002   1.562   4.009  -0.000   0.000  -0.001   0.000   0.000  -0.000   0.000  -0.000  -0.000
  0.000   0.000  -2.914  -0.000   0.000  -0.000  -0.000   1.706   0.000  -0.000  -0.004  -0.002  -0.000   0.000  -0.000  -0.000
  0.002   0.000  -0.000  -5.641   1.846  -0.001   0.000   0.000   4.009  -1.562   0.000  -0.000   0.000  -0.000  -0.000  -0.000
  0.000   0.002   0.000   1.846  -4.309   0.000  -0.001  -0.000  -1.562   2.884   0.000   0.000   0.031  -0.000   0.000   0.002
 -0.000   0.000   0.006   0.000  -0.000   0.000   0.000  -0.004  -0.000   0.000  -0.251   0.106   0.000   0.000   0.000   0.000
 -0.000  -0.000   0.002   0.000  -0.000   0.000   0.000  -0.002  -0.000   0.000   0.106  -0.013   0.000  -0.000  -0.000   0.000
  0.000   0.000   0.000  -0.006  -0.046  -0.000  -0.000  -0.000   0.000   0.031   0.000   0.000  -0.002  -0.000  -0.000   0.006
  0.000   0.000  -0.000   0.000   0.000  -0.000   0.000   0.000  -0.000  -0.000   0.000  -0.000  -0.000  -0.004   0.000  -0.000
 -0.046   0.006   0.000   0.000  -0.000   0.031  -0.000  -0.000  -0.000   0.000   0.000  -0.000  -0.000   0.000  -0.002   0.000
  0.000  -0.000   0.000   0.001  -0.003  -0.000  -0.000  -0.000  -0.000   0.002   0.000   0.000   0.006  -0.000   0.000  -0.001
  0.000   0.000  -0.000   0.000   0.000  -0.000   0.000   0.000  -0.000  -0.000  -0.000   0.000   0.000   0.006   0.000  -0.000
 -0.003  -0.001   0.000  -0.000  -0.000   0.002   0.000  -0.000  -0.000   0.000  -0.000  -0.000  -0.000   0.000   0.006  -0.000


------------------------ aborting loop because EDIFF is reached ----------------------------------------


    CHARGE:  cpu time      1.0057: real time      1.0082
    FORLOC:  cpu time      0.0081: real time      0.0081
    FORNL :  cpu time      7.4769: real time      7.4935
    STRESS:  cpu time     18.3627: real time     18.4096
    FORCOR:  cpu time      0.0256: real time      0.0257
    FORHAR:  cpu time      0.0057: real time      0.0057
    MIXING:  cpu time      0.0265: real time      0.0266
    OFIELD:  cpu time      0.0000: real time      0.0000

  FORCE on cell =-STRESS in cart. coord.  units (eV):
  Direction    XX          YY          ZZ          XY          YZ          ZX
  --------------------------------------------------------------------------------------
  Alpha Z    34.56473    34.56473    34.56473
  Ewald    7031.96053  7031.96294 -8888.60907     0.00208    -0.00038     0.00331
  Hartree  7845.89755  7845.89885 -7256.23978     0.00151     0.00002    -0.00017
  E(xc)    -236.18525  -236.18527  -236.48496    -0.00001    -0.00000    -0.00000
  Local  -15921.74282-15921.74522 15097.78364    -0.00364     0.00016    -0.00216
  n-local   453.14921   453.45027   452.70202    -0.15288     0.04533    -0.03614
  augment   -35.00742   -35.00752   -35.10918    -0.00001     0.00002    -0.00014
  Kinetic   827.65939   827.04603   831.52174     0.12765    -0.08185     0.05659
  Fock        0.00000     0.00000     0.00000     0.00000     0.00000     0.00000
  -------------------------------------------------------------------------------------
  Total       0.14037     0.14037     0.12914    -0.00000     0.00000     0.00000
  in kB       0.37881     0.37881     0.34849    -0.00000     0.00000     0.00000
  external pressure =        0.37 kB  Pullay stress =        0.00 kB


 VOLUME and BASIS-vectors are now :
 -----------------------------------------------------------------------------
  energy-cutoff  :      520.00
  volume of cell :      593.70
      direct lattice vectors                 reciprocal lattice vectors
     6.184440778  0.000000021 -0.000000000     0.161696107  0.093355349 -0.000000000
    -3.092220403  5.355879497  0.000000000    -0.000000001  0.186710698 -0.000000000
    -0.000000000  0.000000000 17.924093221     0.000000000 -0.000000000  0.055790828

  length of vectors
     6.184440778  6.184437905 17.924093221     0.186710611  0.186710698  0.055790828


 FORCES acting on ions
    electron-ion (+dipol)            ewald-force                    non-local-force                 convergence-correction
 -----------------------------------------------------------------------------------------------
   0.284E-03 -.223E-03 0.346E+00   -.117E-02 0.874E-03 -.347E+00   0.867E-18 -.173E-17 0.145E-01   -.380E-06 -.234E-06 -.114E-01
   -.455E-03 0.345E-03 -.500E+00   -.143E-03 0.576E-04 0.501E+00   0.867E-18 0.173E-17 0.265E-02   -.356E-06 -.116E-06 -.648E-02
   -.869E+02 -.485E-01 -.499E+03   0.885E+02 0.435E-01 0.501E+03   -.160E+01 -.419E-02 -.251E+01   -.874E-02 -.962E-03 -.111E-03
   0.435E+02 -.752E+02 -.498E+03   -.443E+02 0.766E+02 0.501E+03   0.801E+00 -.138E+01 -.251E+01   0.520E-02 -.709E-02 -.112E-03
   0.434E+02 0.752E+02 -.499E+03   -.442E+02 -.766E+02 0.501E+03   0.794E+00 0.138E+01 -.251E+01   0.353E-02 0.805E-02 -.112E-03
   -.434E+02 -.752E+02 0.499E+03   0.442E+02 0.766E+02 -.501E+03   -.793E+00 -.138E+01 0.251E+01   -.323E-02 -.729E-02 -.535E-02
   0.869E+02 0.345E-01 0.499E+03   -.884E+02 -.471E-01 -.501E+03   0.159E+01 0.401E-02 0.251E+01   0.793E-02 0.849E-03 -.535E-02
   -.435E+02 0.752E+02 0.499E+03   0.443E+02 -.766E+02 -.501E+03   -.800E+00 0.138E+01 0.251E+01   -.470E-02 0.644E-02 -.535E-02
 -----------------------------------------------------------------------------------------------
   0.614E-01 -.352E-01 0.226E-01   0.711E-14 0.426E-13 -.568E-13   0.000E+00 0.222E-15 0.158E-01   -.287E-05 0.827E-06 -.343E-01
 
 
 POSITION                                       TOTAL-FORCE (eV/Angst)
 -----------------------------------------------------------------------------------
     -3.09221      5.35588      6.49949         0.000000      0.000000      0.001652
      3.09221      1.78530      6.50155         0.000000      0.000000     -0.002639
      3.93027      3.57099      7.87553        -0.003867     -0.000975      0.011290
      1.12673      1.61822      7.87551         0.002778     -0.002862      0.011290
      4.21963      0.16669      7.87552         0.001090      0.003837      0.011290
      5.05675      1.61817      5.12503        -0.000991     -0.003591     -0.010962
      2.25467      3.57021      5.12504         0.003606      0.000937     -0.010962
      1.96520      0.16752      5.12500        -0.002615      0.002654     -0.010962
 -----------------------------------------------------------------------------------
    total drift:                                0.061377     -0.035216      0.004140


--------------------------------------------------------------------------------------------------------



  FREE ENERGIE OF THE ION-ELECTRON SYSTEM (eV)
  ---------------------------------------------------
  free  energy   TOTEN  =       -30.23983579 eV

  energy  without entropy=      -30.23983579  energy(sigma->0) =      -30.23983579
 
 d Force = 0.1551415E-05[-0.805E-06, 0.391E-05]  d Energy = 0.6712968E-04-0.656E-04
 d Force = 0.4150412E+00[ 0.415E+00, 0.415E+00]  d Ewald  =-0.1513832E+01 0.193E+01


--------------------------------------------------------------------------------------------------------


    POTLOK:  cpu time      0.0696: real time      0.0714


--------------------------------------------------------------------------------------------------------




--------------------------------------------------------------------------------------------------------


  
 reached required accuracy - stopping structural energy minimisation
     LOOP+:  cpu time     51.1956: real time     51.3349
    4ORBIT:  cpu time      0.0000: real time      0.0000

 total amount of memory used by VASP MPI-rank0  2826882. kBytes
=======================================================================

   base      :      30000. kBytes
   nonl-proj :     454284. kBytes
   fftplans  :      88392. kBytes
   grid      :     233496. kBytes
   one-center:        248. kBytes
   wavefun   :    2020462. kBytes
 
  
  
 General timing and accounting informations for this job:
 ========================================================
  
                  Total CPU time used (sec):      865.158
                            User time (sec):      861.223
                          System time (sec):        3.935
                         Elapsed time (sec):      867.765
  
                   Maximum memory used (kb):     4622516.
                   Average memory used (kb):          N/A
  
                          Minor page faults:      1249912
                          Major page faults:            0
                 Voluntary context switches:        17886
