 vasp.6.4.1 05Apr23 (build Aug  9 2024 23:13:06) complex                         
 executed on              LinuxNV date 2025.10.29  08:32:20
 running    1 mpi-ranks, with    1 threads/rank, on    1 nodes
 distrk:  each k-point on    1 cores,    1 groups
 distr:  one band on NCORE=   1 cores,    1 groups
 OpenACC runtime initialized ...    1 GPUs detected


--------------------------------------------------------------------------------------------------------


 INCAR:
   PREC = Accurate
   EDIFF = 1E-5
   ENCUT = 520
   NSW = 300
   IBRION = 2
   ISMEAR = 0
   SIGMA = 0.05
   ISIF = 3
   ISPIN = 2
   MAGMOM = 6 -6 0 0 0 0 0 0
   LREAL = F
   LWAVE = F
   LCHARG = F
   LDAU = .TRUE.
   LDAUTYPE = 2
   LDAUL = 2  -1
   LDAUU = 4.5 0.0
   LDAUJ = 0.9 0.0

 POTCAR:    PAW_PBE Fe 06Sep2000                  
 POTCAR:    PAW_PBE Cl 06Sep2000                  
 POTCAR:    PAW_PBE Fe 06Sep2000                  
   VRHFIN =Fe:  d7 s1                                                                               
   LEXCH  = PE                                                                                      
   EATOM  =   594.3153 eV,   43.6809 Ry                                                             
                                                                                                    
   TITEL  = PAW_PBE Fe 06Sep2000                                                                    
   LULTRA =        F    use ultrasoft PP ?                                                          
   IUNSCR =        1    unscreen: 0-lin 1-nonlin 2-no                                               
   RPACOR =    2.000    partial core radius                                                         
   POMASS =   55.847; ZVAL   =    8.000    mass and valenz                                          
   RCORE  =    2.300    outmost cutoff radius                                                       
   RWIGS  =    2.460; RWIGS  =    1.302    wigner-seitz radius (au A)                               
   ENMAX  =  267.882; ENMIN  =  200.911 eV                                                          
   RCLOC  =    1.701    cutoff for local pot                                                        
   LCOR   =        T    correct aug charges                                                         
   LPAW   =        T    paw PP                                                                      
   EAUG   =  511.368                                                                                
   DEXC   =    0.000                                                                                
   RMAX   =    2.356    core radius for proj-oper                                                   
   RAUG   =    1.300    factor for augmentation sphere                                              
   RDEP   =    2.442    radius for radial grids                                                     
   RDEPT  =    1.890    core radius for aug-charge                                                  
                                                                                                    
   Atomic configuration                                                                             
    9 entries                                                                                       
     n  l   j            E        occ.                                                              
     1  0  0.50     -6993.8440   2.0000                                                             
     2  0  0.50      -814.6047   2.0000                                                             
     2  1  1.50      -693.3689   6.0000                                                             
     3  0  0.50       -89.4732   2.0000                                                             
     3  1  1.50       -55.6373   6.0000                                                             
     3  2  2.50        -3.8151   7.0000                                                             
     4  0  0.50        -4.2551   1.0000                                                             
     4  1  1.50        -3.4015   0.0000                                                             
     4  3  2.50        -1.3606   0.0000                                                             
   Description                                                                                      
     l       E           TYP  RCUT    TYP  RCUT                                                     
     2     -3.8151135     23  2.300                                                                 
     2     -5.1756961     23  2.300                                                                 
     0     -4.2550963     23  2.300                                                                 
     0      7.2035603     23  2.300                                                                 
     1     -2.7211652     23  2.300                                                                 
     1     18.4316424     23  2.300                                                                 
  local pseudopotential read in
  partial core-charges read in
  partial kinetic energy density read in
  atomic valenz-charges read in
  non local Contribution for L=            2  read in
    real space projection operators read in
  non local Contribution for L=            2  read in
    real space projection operators read in
  non local Contribution for L=            0  read in
    real space projection operators read in
  non local Contribution for L=            0  read in
    real space projection operators read in
  non local Contribution for L=            1  read in
    real space projection operators read in
  non local Contribution for L=            1  read in
    real space projection operators read in
    PAW grid and wavefunctions read in
 
   number of l-projection  operators is LMAX  =            6
   number of lm-projection operators is LMMAX =           18
 
 POTCAR:    PAW_PBE Cl 06Sep2000                  
   VRHFIN =Cl: s2p5                                                                                 
   LEXCH  = PE                                                                                      
   EATOM  =   409.7259 eV,   30.1140 Ry                                                             
                                                                                                    
   TITEL  = PAW_PBE Cl 06Sep2000                                                                    
   LULTRA =        F    use ultrasoft PP ?                                                          
   IUNSCR =        1    unscreen: 0-lin 1-nonlin 2-no                                               
   RPACOR =    1.500    partial core radius                                                         
   POMASS =   35.453; ZVAL   =    7.000    mass and valenz                                          
   RCORE  =    1.900    outmost cutoff radius                                                       
   RWIGS  =    2.100; RWIGS  =    1.111    wigner-seitz radius (au A)                               
   ENMAX  =  262.472; ENMIN  =  196.854 eV                                                          
   ICORE  =        2    local potential                                                             
   LCOR   =        T    correct aug charges                                                         
   LPAW   =        T    paw PP                                                                      
   EAUG   =  356.192                                                                                
   DEXC   =    0.000                                                                                
   RMAX   =    1.945    core radius for proj-oper                                                   
   RAUG   =    1.300    factor for augmentation sphere                                              
   RDEP   =    2.020    radius for radial grids                                                     
   RDEPT  =    1.678    core radius for aug-charge                                                  
                                                                                                    
   Atomic configuration                                                                             
    6 entries                                                                                       
     n  l   j            E        occ.                                                              
     1  0  0.50     -2751.1850   2.0000                                                             
     2  0  0.50      -252.6861   2.0000                                                             
     2  1  1.50      -191.6157   6.0000                                                             
     3  0  0.50       -20.6916   2.0000                                                             
     3  1  0.50        -8.5949   5.0000                                                             
     3  2  1.50        -8.1635   0.0000                                                             
   Description                                                                                      
     l       E           TYP  RCUT    TYP  RCUT                                                     
     0    -20.6915656     23  1.900                                                                 
     0    -22.0521482     23  1.900                                                                 
     1     -8.5948577     23  1.900                                                                 
     1     -5.3847331     23  1.900                                                                 
     2     -8.1634956     23  1.900                                                                 
  local pseudopotential read in
  partial core-charges read in
  partial kinetic energy density read in
  atomic valenz-charges read in
  non local Contribution for L=            0  read in
    real space projection operators read in
  non local Contribution for L=            0  read in
    real space projection operators read in
  non local Contribution for L=            1  read in
    real space projection operators read in
  non local Contribution for L=            1  read in
    real space projection operators read in
    PAW grid and wavefunctions read in
 
   number of l-projection  operators is LMAX  =            4
   number of lm-projection operators is LMMAX =            8
 
  PAW_PBE Fe 06Sep2000                  :
 energy of atom  1       EATOM= -594.3153
 kinetic energy error for atom=    0.0026 (will be added to EATOM!!)
  PAW_PBE Cl 06Sep2000                  :
 energy of atom  2       EATOM= -409.7259
 kinetic energy error for atom=    0.0023 (will be added to EATOM!!)
 
 
 POSCAR: Fe Cl
  positions in direct lattice
  velocities in cartesian coordinates
 exchange correlation table for  LEXCH =        8
   RHO(1)=    0.500       N(1)  =     2000
   RHO(2)=  100.500       N(2)  =     4000
 


--------------------------------------------------------------------------------------------------------


 ion  position               nearest neighbor table
   1  0.000  1.000  0.363-   4 2.40   3 2.40   5 2.40   7 2.40   8 2.40   6 2.40
   2  0.667  0.333  0.363-   5 2.40   4 2.40   3 2.40   6 2.40   7 2.40   8 2.40
   3  0.968  0.667  0.439-   2 2.40   1 2.40
   4  0.333  0.301  0.439-   2 2.40   1 2.40
   5  0.699  0.032  0.439-   2 2.40   1 2.40
   6  0.968  0.301  0.287-   2 2.40   1 2.40
   7  0.699  0.667  0.287-   2 2.40   1 2.40
   8  0.333  0.032  0.287-   2 2.40   1 2.40
 
  LATTYP: Found a hexagonal cell.
 ALAT       =     6.1941293220
 C/A-ratio  =     2.9117638891
  
  Lattice vectors:
  
 A1 = (   6.1941293220,   0.0000000000,   0.0000000000)
 A2 = (  -3.0970646562,   5.3642700397,   0.0000000000)
 A3 = (   0.0000000000,   0.0000000000,  18.0358420846)


Analysis of symmetry for initial positions (statically):
=====================================================================
 Subroutine PRICEL returns:
 Original cell was already a primitive cell.
 

 Routine SETGRP: Setting up the symmetry group for a 
 hexagonal supercell.


 Subroutine GETGRP returns: Found  3 space group operations
 (whereof  3 operations were pure point group operations)
 out of a pool of 24 trial point group operations.


The static configuration has the point symmetry C_3 .


Analysis of symmetry for dynamics (positions and initial velocities):
=====================================================================
 Subroutine PRICEL returns:
 Original cell was already a primitive cell.
 

 Routine SETGRP: Setting up the symmetry group for a 
 hexagonal supercell.


 Subroutine GETGRP returns: Found  3 space group operations
 (whereof  3 operations were pure point group operations)
 out of a pool of 24 trial point group operations.


The dynamic configuration has the point symmetry C_3 .


Analysis of structural, dynamic, and magnetic symmetry:
=====================================================================
 Subroutine PRICEL returns:
 Original cell was already a primitive cell.
 

 Routine SETGRP: Setting up the symmetry group for a 
 hexagonal supercell.


 Subroutine GETGRP returns: Found  3 space group operations
 (whereof  3 operations were pure point group operations)
 out of a pool of 24 trial point group operations.


The overall configuration has the point symmetry C_3 .


 Subroutine INISYM returns: Found  3 space group operations
 (whereof  3 operations are pure point group operations),
 and found     1 'primitive' translations


----------------------------------------------------------------------------------------

                                     Primitive cell                                     

  volume of cell :     599.2766

  direct lattice vectors                    reciprocal lattice vectors
     6.194129322  0.000000000  0.000000000     0.161443190  0.093209327 -0.000000000
    -3.097064656  5.364270040  0.000000000     0.000000000  0.186418654  0.000000000
     0.000000000  0.000000000 18.035842085     0.000000000 -0.000000000  0.055445152

  length of vectors
     6.194129322  6.194126455 18.035842085     0.186418568  0.186418654  0.055445152

  position of ions in fractional coordinates (direct lattice)
     0.000000915  0.999999362  0.362683119
     0.666665863  0.333333877  0.362665391
     0.968135714  0.666638266  0.438639438
     0.333361491  0.301497805  0.438638524
     0.698500254  0.031867171  0.438638939
     0.968137018  0.301451868  0.286668772
     0.698547301  0.666689283  0.286669675
     0.333311485  0.031862352  0.286667393

  ion indices of the primitive-cell ions
   primitive index   ion index
                 1           1
                 2           2
                 3           3
                 4           4
                 5           5
                 6           6
                 7           7
                 8           8

----------------------------------------------------------------------------------------

 
 
 KPOINTS: Automatic mesh                          

Automatic generation of k-mesh.
 Grid dimensions read from file:
 generate k-points for:   24   24    1

 Generating k-lattice:

  Cartesian coordinates                     Fractional coordinates (reciprocal lattice)
     0.006726800  0.003883722 -0.000000000     0.041666667 -0.000000000  0.000000000
     0.000000000  0.007767444  0.000000000     0.000000000  0.041666667  0.000000000
     0.000000000 -0.000000000  0.055445152     0.000000000  0.000000000  1.000000000

  Length of vectors
     0.007767440  0.007767444  0.055445152

  Shift w.r.t. Gamma in fractional coordinates (k-lattice)
     0.000000000  0.000000000  0.000000000

 
 Subroutine IBZKPT returns following result:
 ===========================================
 
 Found     98 irreducible k-points:
 
 Following reciprocal coordinates:
            Coordinates               Weight
  0.000000  0.000000  0.000000      1.000000
  0.041667  0.000000  0.000000      6.000000
  0.083333  0.000000  0.000000      6.000000
  0.125000  0.000000  0.000000      6.000000
  0.166667  0.000000  0.000000      6.000000
  0.208333  0.000000  0.000000      6.000000
  0.250000  0.000000  0.000000      6.000000
  0.291667  0.000000  0.000000      6.000000
  0.333333  0.000000  0.000000      6.000000
  0.375000  0.000000  0.000000      6.000000
  0.416667  0.000000  0.000000      6.000000
  0.458333  0.000000  0.000000      6.000000
  0.500000  0.000000  0.000000      3.000000
  0.041667  0.041667  0.000000      6.000000
  0.083333  0.041667  0.000000      6.000000
 -0.083333  0.125000  0.000000      6.000000
  0.125000  0.041667  0.000000      6.000000
 -0.125000  0.166667  0.000000      6.000000
  0.166667  0.041667  0.000000      6.000000
 -0.166667  0.208333  0.000000      6.000000
  0.208333  0.041667  0.000000      6.000000
 -0.208333  0.250000  0.000000      6.000000
  0.250000  0.041667  0.000000      6.000000
 -0.250000  0.291667  0.000000      6.000000
  0.291667  0.041667  0.000000      6.000000
 -0.291667  0.333333  0.000000      6.000000
  0.333333  0.041667  0.000000      6.000000
 -0.333333  0.375000  0.000000      6.000000
  0.375000  0.041667  0.000000      6.000000
 -0.375000  0.416667  0.000000      6.000000
  0.416667  0.041667  0.000000      6.000000
 -0.416667  0.458333  0.000000      6.000000
  0.458333  0.041667  0.000000      6.000000
 -0.458333  0.500000  0.000000      6.000000
  0.083333  0.083333  0.000000      6.000000
  0.125000  0.083333  0.000000      6.000000
 -0.125000  0.208333  0.000000      6.000000
  0.166667  0.083333  0.000000      6.000000
 -0.166667  0.250000  0.000000      6.000000
  0.208333  0.083333  0.000000      6.000000
 -0.208333  0.291667  0.000000      6.000000
  0.250000  0.083333  0.000000      6.000000
 -0.250000  0.333333  0.000000      6.000000
  0.291667  0.083333  0.000000      6.000000
 -0.291667  0.375000  0.000000      6.000000
  0.333333  0.083333  0.000000      6.000000
 -0.333333  0.416667  0.000000      6.000000
  0.375000  0.083333  0.000000      6.000000
 -0.375000  0.458333  0.000000      6.000000
  0.416667  0.083333  0.000000      6.000000
 -0.416667  0.500000  0.000000      6.000000
  0.458333  0.083333  0.000000      6.000000
  0.125000  0.125000  0.000000      6.000000
  0.166667  0.125000  0.000000      6.000000
 -0.166667  0.291667  0.000000      6.000000
  0.208333  0.125000  0.000000      6.000000
 -0.208333  0.333333  0.000000      6.000000
  0.250000  0.125000  0.000000      6.000000
 -0.250000  0.375000  0.000000      6.000000
  0.291667  0.125000  0.000000      6.000000
 -0.291667  0.416667  0.000000      6.000000
  0.333333  0.125000  0.000000      6.000000
 -0.333333  0.458333  0.000000      6.000000
  0.375000  0.125000  0.000000      6.000000
 -0.375000  0.500000  0.000000      6.000000
  0.416667  0.125000  0.000000      6.000000
 -0.416667 -0.458333  0.000000      6.000000
  0.166667  0.166667  0.000000      6.000000
  0.208333  0.166667  0.000000      6.000000
 -0.208333  0.375000  0.000000      6.000000
  0.250000  0.166667  0.000000      6.000000
 -0.250000  0.416667  0.000000      6.000000
  0.291667  0.166667  0.000000      6.000000
 -0.291667  0.458333  0.000000      6.000000
  0.333333  0.166667  0.000000      6.000000
 -0.333333  0.500000  0.000000      6.000000
  0.375000  0.166667  0.000000      6.000000
 -0.375000 -0.458333  0.000000      6.000000
  0.416667  0.166667  0.000000      6.000000
  0.208333  0.208333  0.000000      6.000000
  0.250000  0.208333  0.000000      6.000000
 -0.250000  0.458333  0.000000      6.000000
  0.291667  0.208333  0.000000      6.000000
 -0.291667  0.500000  0.000000      6.000000
  0.333333  0.208333  0.000000      6.000000
 -0.333333 -0.458333  0.000000      6.000000
  0.375000  0.208333  0.000000      6.000000
 -0.375000 -0.416667  0.000000      6.000000
  0.250000  0.250000  0.000000      6.000000
  0.291667  0.250000  0.000000      6.000000
 -0.291667 -0.458333  0.000000      6.000000
  0.333333  0.250000  0.000000      6.000000
 -0.333333 -0.416667  0.000000      6.000000
  0.375000  0.250000  0.000000      6.000000
  0.291667  0.291667  0.000000      6.000000
  0.333333  0.291667  0.000000      6.000000
 -0.333333 -0.375000  0.000000      6.000000
  0.333333  0.333333  0.000000      2.000000
 
 Following cartesian coordinates:
            Coordinates               Weight
  0.000000  0.000000  0.000000      1.000000
  0.006727  0.003884  0.000000      6.000000
  0.013454  0.007767  0.000000      6.000000
  0.020180  0.011651  0.000000      6.000000
  0.026907  0.015535  0.000000      6.000000
  0.033634  0.019419  0.000000      6.000000
  0.040361  0.023302  0.000000      6.000000
  0.047088  0.027186  0.000000      6.000000
  0.053814  0.031070  0.000000      6.000000
  0.060541  0.034953  0.000000      6.000000
  0.067268  0.038837  0.000000      6.000000
  0.073995  0.042721  0.000000      6.000000
  0.080722  0.046605  0.000000      3.000000
  0.006727  0.011651  0.000000      6.000000
  0.013454  0.015535  0.000000      6.000000
 -0.013454  0.015535  0.000000      6.000000
  0.020180  0.019419  0.000000      6.000000
 -0.020180  0.019419  0.000000      6.000000
  0.026907  0.023302  0.000000      6.000000
 -0.026907  0.023302  0.000000      6.000000
  0.033634  0.027186  0.000000      6.000000
 -0.033634  0.027186  0.000000      6.000000
  0.040361  0.031070  0.000000      6.000000
 -0.040361  0.031070  0.000000      6.000000
  0.047088  0.034953  0.000000      6.000000
 -0.047088  0.034953  0.000000      6.000000
  0.053814  0.038837  0.000000      6.000000
 -0.053814  0.038837  0.000000      6.000000
  0.060541  0.042721  0.000000      6.000000
 -0.060541  0.042721  0.000000      6.000000
  0.067268  0.046605  0.000000      6.000000
 -0.067268  0.046605  0.000000      6.000000
  0.073995  0.050488  0.000000      6.000000
 -0.073995  0.050488  0.000000      6.000000
  0.013454  0.023302  0.000000      6.000000
  0.020180  0.027186  0.000000      6.000000
 -0.020180  0.027186  0.000000      6.000000
  0.026907  0.031070  0.000000      6.000000
 -0.026907  0.031070  0.000000      6.000000
  0.033634  0.034953  0.000000      6.000000
 -0.033634  0.034953  0.000000      6.000000
  0.040361  0.038837  0.000000      6.000000
 -0.040361  0.038837  0.000000      6.000000
  0.047088  0.042721  0.000000      6.000000
 -0.047088  0.042721  0.000000      6.000000
  0.053814  0.046605  0.000000      6.000000
 -0.053814  0.046605  0.000000      6.000000
  0.060541  0.050488  0.000000      6.000000
 -0.060541  0.050488  0.000000      6.000000
  0.067268  0.054372  0.000000      6.000000
 -0.067268  0.054372  0.000000      6.000000
  0.073995  0.058256  0.000000      6.000000
  0.020180  0.034953  0.000000      6.000000
  0.026907  0.038837  0.000000      6.000000
 -0.026907  0.038837  0.000000      6.000000
  0.033634  0.042721  0.000000      6.000000
 -0.033634  0.042721  0.000000      6.000000
  0.040361  0.046605  0.000000      6.000000
 -0.040361  0.046605  0.000000      6.000000
  0.047088  0.050488  0.000000      6.000000
 -0.047088  0.050488  0.000000      6.000000
  0.053814  0.054372  0.000000      6.000000
 -0.053814  0.054372  0.000000      6.000000
  0.060541  0.058256  0.000000      6.000000
 -0.060541  0.058256  0.000000      6.000000
  0.067268  0.062140  0.000000      6.000000
 -0.067268 -0.124279  0.000000      6.000000
  0.026907  0.046605  0.000000      6.000000
  0.033634  0.050488  0.000000      6.000000
 -0.033634  0.050488  0.000000      6.000000
  0.040361  0.054372  0.000000      6.000000
 -0.040361  0.054372  0.000000      6.000000
  0.047088  0.058256  0.000000      6.000000
 -0.047088  0.058256  0.000000      6.000000
  0.053814  0.062140  0.000000      6.000000
 -0.053814  0.062140  0.000000      6.000000
  0.060541  0.066023  0.000000      6.000000
 -0.060541 -0.120395  0.000000      6.000000
  0.067268  0.069907  0.000000      6.000000
  0.033634  0.058256  0.000000      6.000000
  0.040361  0.062140  0.000000      6.000000
 -0.040361  0.062140  0.000000      6.000000
  0.047088  0.066023  0.000000      6.000000
 -0.047088  0.066023  0.000000      6.000000
  0.053814  0.069907  0.000000      6.000000
 -0.053814 -0.116512  0.000000      6.000000
  0.060541  0.073791  0.000000      6.000000
 -0.060541 -0.112628  0.000000      6.000000
  0.040361  0.069907  0.000000      6.000000
  0.047088  0.073791  0.000000      6.000000
 -0.047088 -0.112628  0.000000      6.000000
  0.053814  0.077674  0.000000      6.000000
 -0.053814 -0.108744  0.000000      6.000000
  0.060541  0.081558  0.000000      6.000000
  0.047088  0.081558  0.000000      6.000000
  0.053814  0.085442  0.000000      6.000000
 -0.053814 -0.100977  0.000000      6.000000
  0.053814  0.093209  0.000000      2.000000
 


--------------------------------------------------------------------------------------------------------




 Dimension of arrays:
   k-points           NKPTS =     98   k-points in BZ     NKDIM =     98   number of bands    NBANDS=     34
   number of dos      NEDOS =    301   number of ions     NIONS =      8
   non local maximal  LDIM  =      6   non local SUM 2l+1 LMDIM =     18
   total plane-waves  NPLWV = 322560
   max r-space proj   IRMAX =      1   max aug-charges    IRDMAX=  19371
   dimension x,y,z NGX =    48 NGY =   48 NGZ =  140
   dimension x,y,z NGXF=    96 NGYF=   96 NGZF=  280
   support grid    NGXF=    96 NGYF=   96 NGZF=  280
   ions per type =               2   6
   NGX,Y,Z   is equivalent  to a cutoff of  12.88, 12.88, 12.90 a.u.
   NGXF,Y,Z  is equivalent  to a cutoff of  25.77, 25.77, 25.81 a.u.

 SYSTEM =  unknown system                          
 POSCAR =  Fe Cl                                   

 Startparameter for this run:
   NWRITE =      2    write-flag & timer
   PREC   = accura    normal or accurate (medium, high low for compatibility)
   ISTART =      0    job   : 0-new  1-cont  2-samecut
   ICHARG =      2    charge: 1-file 2-atom 10-const
   ISPIN  =      2    spin polarized calculation?
   LNONCOLLINEAR =      F non collinear calculations
   LSORBIT =      F    spin-orbit coupling
   INIWAV =      1    electr: 0-lowe 1-rand  2-diag
   LASPH  =      F    aspherical Exc in radial PAW
 Electronic Relaxation 1
   ENCUT  =  520.0 eV  38.22 Ry    6.18 a.u.  11.52 11.52 33.53*2*pi/ulx,y,z
   ENINI  =  520.0     initial cutoff
   ENAUG  =  511.4 eV  augmentation charge cutoff
   NELM   =     60;   NELMIN=  2; NELMDL=  0     # of ELM steps 
   EDIFF  = 0.1E-04   stopping-criterion for ELM
   LREAL  =      F    real-space projection
   NLSPLINE    = F    spline interpolate recip. space projectors
   LCOMPAT=      F    compatible to vasp.4.4
   GGA_COMPAT  = T    GGA compatible to vasp.4.4-vasp.4.6
   LMAXPAW     = -100 max onsite density
   LMAXMIX     =    2 max onsite mixed and CHGCAR
   VOSKOWN=      0    Vosko Wilk Nusair interpolation
   ROPT   =    0.00000   0.00000
 Ionic relaxation
   EDIFFG = 0.1E-03   stopping-criterion for IOM
   NSW    =    300    number of steps for IOM
   NBLOCK =      1;   KBLOCK =    300    inner block; outer block 
   IBRION =      2    ionic relax: 0-MD 1-quasi-New 2-CG
   NFREE  =      1    steps in history (QN), initial steepest desc. (CG)
   ISIF   =      3    stress and relaxation
   IWAVPR =     11    prediction:  0-non 1-charg 2-wave 3-comb
   ISYM   =      2    0-nonsym 1-usesym 2-fastsym
   LCORR  =      T    Harris-Foulkes like correction to forces

   POTIM  = 0.5000    time-step for ionic-motion
   TEIN   =    0.0    initial temperature
   TEBEG  =    0.0;   TEEND  =   0.0 temperature during run
   SMASS  =  -3.00    Nose mass-parameter (am)
   estimated Nose-frequenzy (Omega)   =  0.10E-29 period in steps = 0.13E+47 mass=  -0.877E-27a.u.
   SCALEE = 1.0000    scale energy and forces
   NPACO  =    256;   APACO  = 10.0  distance and # of slots for P.C.
   PSTRESS=    0.0 pullay stress

  Mass of Ions in am
   POMASS =  55.85 35.45
  Ionic Valenz
   ZVAL   =   8.00  7.00
  Atomic Wigner-Seitz radii
   RWIGS  =  -1.00 -1.00
  virtual crystal weights 
   VCA    =   1.00  1.00
   NELECT =      58.0000    total number of electrons
   NUPDOWN=      -1.0000    fix difference up-down

 DOS related values:
   EMIN   =  10.00;   EMAX   =-10.00  energy-range for DOS
   EFERMI =   0.00;   METHOD = LEGACY      
   ISMEAR =     0;   SIGMA  =   0.05  broadening in eV -4-tet -1-fermi 0-gaus

 Electronic relaxation 2 (details)
   IALGO  =     38    algorithm
   LDIAG  =      T    sub-space diagonalisation (order eigenvalues)
   LSUBROT=      F    optimize rotation matrix (better conditioning)
   TURBO    =      0    0=normal 1=particle mesh
   IRESTART =      0    0=no restart 2=restart with 2 vectors
   NREBOOT  =      0    no. of reboots
   NMIN     =      0    reboot dimension
   EREF     =   0.00    reference energy to select bands
   IMIX   =      4    mixing-type and parameters
     AMIX     =   0.40;   BMIX     =  1.00
     AMIX_MAG =   1.60;   BMIX_MAG =  1.00
     AMIN     =   0.10
     WC   =   100.;   INIMIX=   1;  MIXPRE=   1;  MAXMIX= -45

 Intra band minimization:
   WEIMIN = 0.0010     energy-eigenvalue tresh-hold
   EBREAK =  0.74E-07  absolut break condition
   DEPER  =   0.30     relativ break condition  

   TIME   =   0.40     timestep for ELM

  volume/ion in A,a.u.               =      74.91       505.51
  Fermi-wavevector in a.u.,A,eV,Ry     =   0.751637  1.420389  7.686731  0.564959
  Thomas-Fermi vector in A             =   1.848664
 
 Write flags
   LWAVE        =      F    write WAVECAR
   LDOWNSAMPLE  =      F    k-point downsampling of WAVECAR
   LCHARG       =      F    write CHGCAR
   LVTOT        =      F    write LOCPOT, total local potential
   LVHAR        =      F    write LOCPOT, Hartree potential only
   LELF         =      F    write electronic localiz. function (ELF)
   LORBIT       =      0    0 simple, 1 ext, 2 COOP (PROOUT), +10 PAW based schemes


 Dipole corrections
   LMONO  =      F    monopole corrections only (constant potential shift)
   LDIPOL =      F    correct potential (dipole corrections)
   IDIPOL =      0    1-x, 2-y, 3-z, 4-all directions 
   EPSILON=  1.0000000 bulk dielectric constant

 LDA+U is selected, type is set to LDAUTYPE =  2
   angular momentum for each species LDAUL =     2   -1
   U (eV)           for each species LDAUU =   4.5  0.0
   J (eV)           for each species LDAUJ =   0.9  0.0
 Exchange correlation treatment:
   GGA     =    --    GGA type
   LEXCH   =     8    internal setting for exchange type
   LIBXC   =     F    Libxc                    
   VOSKOWN =     0    Vosko Wilk Nusair interpolation
   LHFCALC =     F    Hartree Fock is set to
   LHFONE  =     F    Hartree Fock one center treatment
   AEXX    =    0.0000 exact exchange contribution

 Linear response parameters
   LEPSILON=     F    determine dielectric tensor
   LRPA    =     F    only Hartree local field effects (RPA)
   LNABLA  =     F    use nabla operator in PAW spheres
   LVEL    =     F    velocity operator in full k-point grid
   CSHIFT  =0.1000    complex shift for real part using Kramers Kronig
   OMEGAMAX=  -1.0    maximum frequency
   DEG_THRESHOLD= 0.2000000E-02 threshold for treating states as degnerate
   RTIME   =   -0.100 relaxation time in fs
  (WPLASMAI=    0.000 imaginary part of plasma frequency in eV, 0.658/RTIME)
   DFIELD  = 0.0000000 0.0000000 0.0000000 field for delta impulse in time
 
  Optional k-point grid parameters
   LKPOINTS_OPT  =     F    use optional k-point grid
   KPOINTS_OPT_MODE=     1    mode for optional k-point grid
 
 Orbital magnetization related:
   ORBITALMAG=     F  switch on orbital magnetization
   LCHIMAG   =     F  perturbation theory with respect to B field
   DQ        =  0.001000  dq finite difference perturbation B field
   LLRAUG    =     F  two centre corrections for induced B field
   LBONE     =     F  B-component reconstruction in AE one-centre
   LVGVCALC  =     T  calculate vGv susceptibility
   LVGVAPPL  =     F  apply vGv susceptibility instead of pGv for G=0

 Random number generation:
   RANDOM_GENERATOR = DEFAULT
   PCG_SEED         = not used


--------------------------------------------------------------------------------------------------------


 conjugate gradient relaxation of ions
 charge density and potential will be updated during run
 spin polarized calculation
 Variant of blocked Davidson
 Davidson routine will perform the subspace rotation
 perform sub-space diagonalisation
    after iterative eigenvector-optimisation
 modified Broyden-mixing scheme, WC =      100.0
 initial mixing is a Kerker type mixing with AMIX =  0.4000 and BMIX =      1.0000
 Hartree-type preconditioning will be used
 using additional bands             5
 reciprocal scheme for non local part
 use partial core corrections
 calculate Harris-corrections to forces 
   (improved forces if not selfconsistent)
 use gradient corrections 
 use of overlap-Matrix (Vanderbilt PP)
 Gauss-broadening in eV      SIGMA  =   0.05


--------------------------------------------------------------------------------------------------------


  energy-cutoff  :      520.00
  volume of cell :      599.28
      direct lattice vectors                 reciprocal lattice vectors
     6.194129322  0.000000000  0.000000000     0.161443190  0.093209327 -0.000000000
    -3.097064656  5.364270040  0.000000000     0.000000000  0.186418654  0.000000000
     0.000000000  0.000000000 18.035842085     0.000000000 -0.000000000  0.055445152

  length of vectors
     6.194129322  6.194126455 18.035842085     0.186418568  0.186418654  0.055445152


 
 k-points in units of 2pi/SCALE and weight: Automatic mesh                          
   0.00000000  0.00000000  0.00000000       0.002
   0.00672680  0.00388372  0.00000000       0.010
   0.01345360  0.00776744  0.00000000       0.010
   0.02018040  0.01165117  0.00000000       0.010
   0.02690720  0.01553489  0.00000000       0.010
   0.03363400  0.01941861  0.00000000       0.010
   0.04036080  0.02330233  0.00000000       0.010
   0.04708760  0.02718605  0.00000000       0.010
   0.05381440  0.03106978  0.00000000       0.010
   0.06054120  0.03495350  0.00000000       0.010
   0.06726800  0.03883722  0.00000000       0.010
   0.07399480  0.04272094  0.00000000       0.010
   0.08072160  0.04660466  0.00000000       0.005
   0.00672680  0.01165117  0.00000000       0.010
   0.01345360  0.01553489  0.00000000       0.010
  -0.01345360  0.01553489  0.00000000       0.010
   0.02018040  0.01941861  0.00000000       0.010
  -0.02018040  0.01941861  0.00000000       0.010
   0.02690720  0.02330233  0.00000000       0.010
  -0.02690720  0.02330233  0.00000000       0.010
   0.03363400  0.02718605  0.00000000       0.010
  -0.03363400  0.02718605  0.00000000       0.010
   0.04036080  0.03106978  0.00000000       0.010
  -0.04036080  0.03106978  0.00000000       0.010
   0.04708760  0.03495350  0.00000000       0.010
  -0.04708760  0.03495350  0.00000000       0.010
   0.05381440  0.03883722  0.00000000       0.010
  -0.05381440  0.03883722  0.00000000       0.010
   0.06054120  0.04272094  0.00000000       0.010
  -0.06054120  0.04272094  0.00000000       0.010
   0.06726800  0.04660466  0.00000000       0.010
  -0.06726800  0.04660466  0.00000000       0.010
   0.07399480  0.05048839  0.00000000       0.010
  -0.07399480  0.05048839  0.00000000       0.010
   0.01345360  0.02330233  0.00000000       0.010
   0.02018040  0.02718605  0.00000000       0.010
  -0.02018040  0.02718605  0.00000000       0.010
   0.02690720  0.03106978  0.00000000       0.010
  -0.02690720  0.03106978  0.00000000       0.010
   0.03363400  0.03495350  0.00000000       0.010
  -0.03363400  0.03495350  0.00000000       0.010
   0.04036080  0.03883722  0.00000000       0.010
  -0.04036080  0.03883722  0.00000000       0.010
   0.04708760  0.04272094  0.00000000       0.010
  -0.04708760  0.04272094  0.00000000       0.010
   0.05381440  0.04660466  0.00000000       0.010
  -0.05381440  0.04660466  0.00000000       0.010
   0.06054120  0.05048839  0.00000000       0.010
  -0.06054120  0.05048839  0.00000000       0.010
   0.06726800  0.05437211  0.00000000       0.010
  -0.06726800  0.05437211  0.00000000       0.010
   0.07399480  0.05825583  0.00000000       0.010
   0.02018040  0.03495350  0.00000000       0.010
   0.02690720  0.03883722  0.00000000       0.010
  -0.02690720  0.03883722  0.00000000       0.010
   0.03363400  0.04272094  0.00000000       0.010
  -0.03363400  0.04272094  0.00000000       0.010
   0.04036080  0.04660466  0.00000000       0.010
  -0.04036080  0.04660466  0.00000000       0.010
   0.04708760  0.05048839  0.00000000       0.010
  -0.04708760  0.05048839  0.00000000       0.010
   0.05381440  0.05437211  0.00000000       0.010
  -0.05381440  0.05437211  0.00000000       0.010
   0.06054120  0.05825583  0.00000000       0.010
  -0.06054120  0.05825583  0.00000000       0.010
   0.06726800  0.06213955  0.00000000       0.010
  -0.06726800 -0.12427910  0.00000000       0.010
   0.02690720  0.04660466  0.00000000       0.010
   0.03363400  0.05048839  0.00000000       0.010
  -0.03363400  0.05048839  0.00000000       0.010
   0.04036080  0.05437211  0.00000000       0.010
  -0.04036080  0.05437211  0.00000000       0.010
   0.04708760  0.05825583  0.00000000       0.010
  -0.04708760  0.05825583  0.00000000       0.010
   0.05381440  0.06213955  0.00000000       0.010
  -0.05381440  0.06213955  0.00000000       0.010
   0.06054120  0.06602327  0.00000000       0.010
  -0.06054120 -0.12039538  0.00000000       0.010
   0.06726800  0.06990700  0.00000000       0.010
   0.03363400  0.05825583  0.00000000       0.010
   0.04036080  0.06213955  0.00000000       0.010
  -0.04036080  0.06213955  0.00000000       0.010
   0.04708760  0.06602327  0.00000000       0.010
  -0.04708760  0.06602327  0.00000000       0.010
   0.05381440  0.06990700  0.00000000       0.010
  -0.05381440 -0.11651166  0.00000000       0.010
   0.06054120  0.07379072  0.00000000       0.010
  -0.06054120 -0.11262794  0.00000000       0.010
   0.04036080  0.06990700  0.00000000       0.010
   0.04708760  0.07379072  0.00000000       0.010
  -0.04708760 -0.11262794  0.00000000       0.010
   0.05381440  0.07767444  0.00000000       0.010
  -0.05381440 -0.10874421  0.00000000       0.010
   0.06054120  0.08155816  0.00000000       0.010
   0.04708760  0.08155816  0.00000000       0.010
   0.05381440  0.08544188  0.00000000       0.010
  -0.05381440 -0.10097677  0.00000000       0.010
   0.05381440  0.09320933  0.00000000       0.003
 
 k-points in reciprocal lattice and weights: Automatic mesh                          
   0.00000000  0.00000000  0.00000000       0.002
   0.04166667  0.00000000  0.00000000       0.010
   0.08333333  0.00000000  0.00000000       0.010
   0.12500000  0.00000000  0.00000000       0.010
   0.16666667  0.00000000  0.00000000       0.010
   0.20833333  0.00000000  0.00000000       0.010
   0.25000000  0.00000000  0.00000000       0.010
   0.29166667  0.00000000  0.00000000       0.010
   0.33333333  0.00000000  0.00000000       0.010
   0.37500000  0.00000000  0.00000000       0.010
   0.41666667  0.00000000  0.00000000       0.010
   0.45833333  0.00000000  0.00000000       0.010
   0.50000000  0.00000000  0.00000000       0.005
   0.04166667  0.04166667  0.00000000       0.010
   0.08333333  0.04166667  0.00000000       0.010
  -0.08333333  0.12500000  0.00000000       0.010
   0.12500000  0.04166667  0.00000000       0.010
  -0.12500000  0.16666667  0.00000000       0.010
   0.16666667  0.04166667  0.00000000       0.010
  -0.16666667  0.20833333  0.00000000       0.010
   0.20833333  0.04166667  0.00000000       0.010
  -0.20833333  0.25000000  0.00000000       0.010
   0.25000000  0.04166667  0.00000000       0.010
  -0.25000000  0.29166667  0.00000000       0.010
   0.29166667  0.04166667  0.00000000       0.010
  -0.29166667  0.33333333  0.00000000       0.010
   0.33333333  0.04166667  0.00000000       0.010
  -0.33333333  0.37500000  0.00000000       0.010
   0.37500000  0.04166667  0.00000000       0.010
  -0.37500000  0.41666667  0.00000000       0.010
   0.41666667  0.04166667  0.00000000       0.010
  -0.41666667  0.45833333  0.00000000       0.010
   0.45833333  0.04166667  0.00000000       0.010
  -0.45833333  0.50000000  0.00000000       0.010
   0.08333333  0.08333333  0.00000000       0.010
   0.12500000  0.08333333  0.00000000       0.010
  -0.12500000  0.20833333  0.00000000       0.010
   0.16666667  0.08333333  0.00000000       0.010
  -0.16666667  0.25000000  0.00000000       0.010
   0.20833333  0.08333333  0.00000000       0.010
  -0.20833333  0.29166667  0.00000000       0.010
   0.25000000  0.08333333  0.00000000       0.010
  -0.25000000  0.33333333  0.00000000       0.010
   0.29166667  0.08333333  0.00000000       0.010
  -0.29166667  0.37500000  0.00000000       0.010
   0.33333333  0.08333333  0.00000000       0.010
  -0.33333333  0.41666667  0.00000000       0.010
   0.37500000  0.08333333  0.00000000       0.010
  -0.37500000  0.45833333  0.00000000       0.010
   0.41666667  0.08333333  0.00000000       0.010
  -0.41666667  0.50000000  0.00000000       0.010
   0.45833333  0.08333333  0.00000000       0.010
   0.12500000  0.12500000  0.00000000       0.010
   0.16666667  0.12500000  0.00000000       0.010
  -0.16666667  0.29166667  0.00000000       0.010
   0.20833333  0.12500000  0.00000000       0.010
  -0.20833333  0.33333333  0.00000000       0.010
   0.25000000  0.12500000  0.00000000       0.010
  -0.25000000  0.37500000  0.00000000       0.010
   0.29166667  0.12500000  0.00000000       0.010
  -0.29166667  0.41666667  0.00000000       0.010
   0.33333333  0.12500000  0.00000000       0.010
  -0.33333333  0.45833333  0.00000000       0.010
   0.37500000  0.12500000  0.00000000       0.010
  -0.37500000  0.50000000  0.00000000       0.010
   0.41666667  0.12500000  0.00000000       0.010
  -0.41666667 -0.45833333  0.00000000       0.010
   0.16666667  0.16666667  0.00000000       0.010
   0.20833333  0.16666667  0.00000000       0.010
  -0.20833333  0.37500000  0.00000000       0.010
   0.25000000  0.16666667  0.00000000       0.010
  -0.25000000  0.41666667  0.00000000       0.010
   0.29166667  0.16666667  0.00000000       0.010
  -0.29166667  0.45833333  0.00000000       0.010
   0.33333333  0.16666667  0.00000000       0.010
  -0.33333333  0.50000000  0.00000000       0.010
   0.37500000  0.16666667  0.00000000       0.010
  -0.37500000 -0.45833333  0.00000000       0.010
   0.41666667  0.16666667  0.00000000       0.010
   0.20833333  0.20833333  0.00000000       0.010
   0.25000000  0.20833333  0.00000000       0.010
  -0.25000000  0.45833333  0.00000000       0.010
   0.29166667  0.20833333  0.00000000       0.010
  -0.29166667  0.50000000  0.00000000       0.010
   0.33333333  0.20833333  0.00000000       0.010
  -0.33333333 -0.45833333  0.00000000       0.010
   0.37500000  0.20833333  0.00000000       0.010
  -0.37500000 -0.41666667  0.00000000       0.010
   0.25000000  0.25000000  0.00000000       0.010
   0.29166667  0.25000000  0.00000000       0.010
  -0.29166667 -0.45833333  0.00000000       0.010
   0.33333333  0.25000000  0.00000000       0.010
  -0.33333333 -0.41666667  0.00000000       0.010
   0.37500000  0.25000000  0.00000000       0.010
   0.29166667  0.29166667  0.00000000       0.010
   0.33333333  0.29166667  0.00000000       0.010
  -0.33333333 -0.37500000  0.00000000       0.010
   0.33333333  0.33333333  0.00000000       0.003
 
 position of ions in fractional coordinates (direct lattice) 
   0.00000091  0.99999936  0.36268312
   0.66666586  0.33333388  0.36266539
   0.96813571  0.66663827  0.43863944
   0.33336149  0.30149781  0.43863852
   0.69850025  0.03186717  0.43863894
   0.96813702  0.30145187  0.28666877
   0.69854730  0.66668928  0.28666967
   0.33331148  0.03186235  0.28666739
 
 position of ions in cartesian coordinates  (Angst):
  -3.09705701  5.36426662  6.54129545
   3.09705800  1.78809293  6.54097573
   3.93213600  3.57602768  7.91123164
   1.13112599  1.61731564  7.91121515
   4.22790621  0.17094411  7.91122264
   5.06314996  1.61706922  5.17031271
   2.26211250  3.57630135  5.17032898
   1.96589468  0.17091826  5.17028783
 


--------------------------------------------------------------------------------------------------------


 k-point   1 :   0.0000 0.0000 0.0000  plane waves:   16195
 k-point   2 :   0.0417 0.0000 0.0000  plane waves:   16218
 k-point   3 :   0.0833 0.0000 0.0000  plane waves:   16176
 k-point   4 :   0.1250 0.0000 0.0000  plane waves:   16144
 k-point   5 :   0.1667 0.0000 0.0000  plane waves:   16156
 k-point   6 :   0.2083 0.0000 0.0000  plane waves:   16182
 k-point   7 :   0.2500 0.0000 0.0000  plane waves:   16172
 k-point   8 :   0.2917 0.0000 0.0000  plane waves:   16172
 k-point   9 :   0.3333 0.0000 0.0000  plane waves:   16162
 k-point  10 :   0.3750 0.0000 0.0000  plane waves:   16134
 k-point  11 :   0.4167 0.0000 0.0000  plane waves:   16128
 k-point  12 :   0.4583 0.0000 0.0000  plane waves:   16090
 k-point  13 :   0.5000 0.0000 0.0000  plane waves:   16088
 k-point  14 :   0.0417 0.0417 0.0000  plane waves:   16183
 k-point  15 :   0.0833 0.0417 0.0000  plane waves:   16159
 k-point  16 :  -0.0833 0.1250 0.0000  plane waves:   16159
 k-point  17 :   0.1250 0.0417 0.0000  plane waves:   16171
 k-point  18 :  -0.1250 0.1667 0.0000  plane waves:   16171
 k-point  19 :   0.1667 0.0417 0.0000  plane waves:   16177
 k-point  20 :  -0.1667 0.2083 0.0000  plane waves:   16177
 k-point  21 :   0.2083 0.0417 0.0000  plane waves:   16160
 k-point  22 :  -0.2083 0.2500 0.0000  plane waves:   16160
 k-point  23 :   0.2500 0.0417 0.0000  plane waves:   16175
 k-point  24 :  -0.2500 0.2917 0.0000  plane waves:   16175
 k-point  25 :   0.2917 0.0417 0.0000  plane waves:   16155
 k-point  26 :  -0.2917 0.3333 0.0000  plane waves:   16155
 k-point  27 :   0.3333 0.0417 0.0000  plane waves:   16162
 k-point  28 :  -0.3333 0.3750 0.0000  plane waves:   16162
 k-point  29 :   0.3750 0.0417 0.0000  plane waves:   16136
 k-point  30 :  -0.3750 0.4167 0.0000  plane waves:   16136
 k-point  31 :   0.4167 0.0417 0.0000  plane waves:   16102
 k-point  32 :  -0.4167 0.4583 0.0000  plane waves:   16102
 k-point  33 :   0.4583 0.0417 0.0000  plane waves:   16086
 k-point  34 :  -0.4583 0.5000 0.0000  plane waves:   16086
 k-point  35 :   0.0833 0.0833 0.0000  plane waves:   16187
 k-point  36 :   0.1250 0.0833 0.0000  plane waves:   16165
 k-point  37 :  -0.1250 0.2083 0.0000  plane waves:   16165
 k-point  38 :   0.1667 0.0833 0.0000  plane waves:   16172
 k-point  39 :  -0.1667 0.2500 0.0000  plane waves:   16172
 k-point  40 :   0.2083 0.0833 0.0000  plane waves:   16172
 k-point  41 :  -0.2083 0.2917 0.0000  plane waves:   16172
 k-point  42 :   0.2500 0.0833 0.0000  plane waves:   16166
 k-point  43 :  -0.2500 0.3333 0.0000  plane waves:   16166
 k-point  44 :   0.2917 0.0833 0.0000  plane waves:   16168
 k-point  45 :  -0.2917 0.3750 0.0000  plane waves:   16168
 k-point  46 :   0.3333 0.0833 0.0000  plane waves:   16150
 k-point  47 :  -0.3333 0.4167 0.0000  plane waves:   16150
 k-point  48 :   0.3750 0.0833 0.0000  plane waves:   16141
 k-point  49 :  -0.3750 0.4583 0.0000  plane waves:   16141
 k-point  50 :   0.4167 0.0833 0.0000  plane waves:   16099
 k-point  51 :  -0.4167 0.5000 0.0000  plane waves:   16099
 k-point  52 :   0.4583 0.0833 0.0000  plane waves:   16094
 k-point  53 :   0.1250 0.1250 0.0000  plane waves:   16141
 k-point  54 :   0.1667 0.1250 0.0000  plane waves:   16153
 k-point  55 :  -0.1667 0.2917 0.0000  plane waves:   16153
 k-point  56 :   0.2083 0.1250 0.0000  plane waves:   16166
 k-point  57 :  -0.2083 0.3333 0.0000  plane waves:   16166
 k-point  58 :   0.2500 0.1250 0.0000  plane waves:   16176
 k-point  59 :  -0.2500 0.3750 0.0000  plane waves:   16176
 k-point  60 :   0.2917 0.1250 0.0000  plane waves:   16157
 k-point  61 :  -0.2917 0.4167 0.0000  plane waves:   16157
 k-point  62 :   0.3333 0.1250 0.0000  plane waves:   16150
 k-point  63 :  -0.3333 0.4583 0.0000  plane waves:   16150
 k-point  64 :   0.3750 0.1250 0.0000  plane waves:   16108
 k-point  65 :  -0.3750 0.5000 0.0000  plane waves:   16108
 k-point  66 :   0.4167 0.1250 0.0000  plane waves:   16105
 k-point  67 :  -0.4167-0.4583 0.0000  plane waves:   16105
 k-point  68 :   0.1667 0.1667 0.0000  plane waves:   16173
 k-point  69 :   0.2083 0.1667 0.0000  plane waves:   16143
 k-point  70 :  -0.2083 0.3750 0.0000  plane waves:   16143
 k-point  71 :   0.2500 0.1667 0.0000  plane waves:   16143
 k-point  72 :  -0.2500 0.4167 0.0000  plane waves:   16143
 k-point  73 :   0.2917 0.1667 0.0000  plane waves:   16135
 k-point  74 :  -0.2917 0.4583 0.0000  plane waves:   16135
 k-point  75 :   0.3333 0.1667 0.0000  plane waves:   16112
 k-point  76 :  -0.3333 0.5000 0.0000  plane waves:   16112
 k-point  77 :   0.3750 0.1667 0.0000  plane waves:   16104
 k-point  78 :  -0.3750-0.4583 0.0000  plane waves:   16104
 k-point  79 :   0.4167 0.1667 0.0000  plane waves:   16134
 k-point  80 :   0.2083 0.2083 0.0000  plane waves:   16145
 k-point  81 :   0.2500 0.2083 0.0000  plane waves:   16132
 k-point  82 :  -0.2500 0.4583 0.0000  plane waves:   16132
 k-point  83 :   0.2917 0.2083 0.0000  plane waves:   16109
 k-point  84 :  -0.2917 0.5000 0.0000  plane waves:   16109
 k-point  85 :   0.3333 0.2083 0.0000  plane waves:   16099
 k-point  86 :  -0.3333-0.4583 0.0000  plane waves:   16099
 k-point  87 :   0.3750 0.2083 0.0000  plane waves:   16097
 k-point  88 :  -0.3750-0.4167 0.0000  plane waves:   16097
 k-point  89 :   0.2500 0.2500 0.0000  plane waves:   16114
 k-point  90 :   0.2917 0.2500 0.0000  plane waves:   16085
 k-point  91 :  -0.2917-0.4583 0.0000  plane waves:   16085
 k-point  92 :   0.3333 0.2500 0.0000  plane waves:   16088
 k-point  93 :  -0.3333-0.4167 0.0000  plane waves:   16088
 k-point  94 :   0.3750 0.2500 0.0000  plane waves:   16076
 k-point  95 :   0.2917 0.2917 0.0000  plane waves:   16076
 k-point  96 :   0.3333 0.2917 0.0000  plane waves:   16066
 k-point  97 :  -0.3333-0.3750 0.0000  plane waves:   16066
 k-point  98 :   0.3333 0.3333 0.0000  plane waves:   16044

 maximum and minimum number of plane-waves per node :     16218    16044

 maximum number of plane-waves:     16218
 maximum index in each direction: 
   IXMAX=   11   IYMAX=   11   IZMAX=   33
   IXMIN=  -12   IYMIN=  -12   IZMIN=  -33


 serial   3D FFT for wavefunctions
 parallel 3D FFT for charge:
    minimum data exchange during FFTs selected (reduces bandwidth)


 total amount of memory used by VASP MPI-rank0  2550132. kBytes
=======================================================================

   base      :      30000. kBytes
   nonl-proj :     459812. kBytes
   fftplans  :      88392. kBytes
   grid      :     233496. kBytes
   one-center:        248. kBytes
   wavefun   :    1738184. kBytes
 
     INWAV:  cpu time      0.0001: real time      0.0002
 Broyden mixing: mesh for mixing (old mesh)
   NGX = 23   NGY = 23   NGZ = 67
  (NGX  = 96   NGY  = 96   NGZ  =280)
  gives a total of  35443 points

 initial charge density was supplied:
 charge density of overlapping atoms calculated
 number of electron      58.0000000 magnetization       0.0000000
 keeping initial charge density in first step


--------------------------------------------------------------------------------------------------------


 Maximum index for augmentation-charges         18608 (set IRDMAX)


--------------------------------------------------------------------------------------------------------


 First call to EWALD:  gamma=   0.210
 Maximum number of real-space cells 4x 4x 2
 Maximum number of reciprocal cells 2x 2x 5

    FEWALD:  cpu time      0.0008: real time      0.0008


--------------------------------------- Ionic step        1  -------------------------------------------




--------------------------------------- Iteration      1(   1)  ---------------------------------------


    POTLOK:  cpu time      0.0426: real time      0.0448
    SETDIJ:  cpu time      0.0297: real time      0.0298
     EDDAV:  cpu time      6.0251: real time      6.0372
       DOS:  cpu time      0.0040: real time      0.0040
    --------------------------------------------
      LOOP:  cpu time      6.1015: real time      6.1158

 eigenvalue-minimisations  : 13328
 total energy-change (2. order) : 0.5774667E+03  (-0.1981056E+04)
 number of electron      58.0000000 magnetization       0.0000000
 augmentation part       58.0000000 magnetization       0.0000000

 Free energy of the ion-electron system (eV)
  ---------------------------------------------------
  alpha Z        PSCENC =        34.24319744
  Ewald energy   TEWEN  =      5250.87146173
  -Hartree energ DENC   =     -8564.16867115
  -exchange      EXHF   =         0.00000000
  -V(xc)+E(xc)   XCENC  =       134.52794924
  PAW double counting   =      3052.26160663    -3045.71919405
  entropy T*S    EENTRO =        -0.00585789
  eigenvalues    EBANDS =        68.48947584
  atomic energy  EATOM  =      3646.96668234
  Solvation  Ediel_sol  =         0.00000000
  ---------------------------------------------------
  free energy    TOTEN  =       577.46665012 eV

  energy without entropy =      577.47250800  energy(sigma->0) =      577.46957906


--------------------------------------------------------------------------------------------------------




--------------------------------------- Iteration      1(   2)  ---------------------------------------


     EDDAV:  cpu time      7.9293: real time      7.9451
       DOS:  cpu time      0.0039: real time      0.0039
    --------------------------------------------
      LOOP:  cpu time      7.9332: real time      7.9490

 eigenvalue-minimisations  : 19966
 total energy-change (2. order) :-0.4870550E+03  (-0.4819144E+03)
 number of electron      58.0000000 magnetization       0.0000000
 augmentation part       58.0000000 magnetization       0.0000000

 Free energy of the ion-electron system (eV)
  ---------------------------------------------------
  alpha Z        PSCENC =        34.24319744
  Ewald energy   TEWEN  =      5250.87146173
  -Hartree energ DENC   =     -8564.16867115
  -exchange      EXHF   =         0.00000000
  -V(xc)+E(xc)   XCENC  =       134.52794924
  PAW double counting   =      3052.26160663    -3045.71919405
  entropy T*S    EENTRO =        -0.00211436
  eigenvalues    EBANDS =      -418.56923120
  atomic energy  EATOM  =      3646.96668234
  Solvation  Ediel_sol  =         0.00000000
  ---------------------------------------------------
  free energy    TOTEN  =        90.41168661 eV

  energy without entropy =       90.41380097  energy(sigma->0) =       90.41274379


--------------------------------------------------------------------------------------------------------




--------------------------------------- Iteration      1(   3)  ---------------------------------------


     EDDAV:  cpu time      6.5921: real time      6.6081
       DOS:  cpu time      0.0024: real time      0.0024
    --------------------------------------------
      LOOP:  cpu time      6.5945: real time      6.6104

 eigenvalue-minimisations  : 15458
 total energy-change (2. order) :-0.1240133E+03  (-0.1234370E+03)
 number of electron      58.0000000 magnetization       0.0000000
 augmentation part       58.0000000 magnetization       0.0000000

 Free energy of the ion-electron system (eV)
  ---------------------------------------------------
  alpha Z        PSCENC =        34.24319744
  Ewald energy   TEWEN  =      5250.87146173
  -Hartree energ DENC   =     -8564.16867115
  -exchange      EXHF   =         0.00000000
  -V(xc)+E(xc)   XCENC  =       134.52794924
  PAW double counting   =      3052.26160663    -3045.71919405
  entropy T*S    EENTRO =        -0.00000000
  eigenvalues    EBANDS =      -542.58466564
  atomic energy  EATOM  =      3646.96668234
  Solvation  Ediel_sol  =         0.00000000
  ---------------------------------------------------
  free energy    TOTEN  =       -33.60163348 eV

  energy without entropy =      -33.60163348  energy(sigma->0) =      -33.60163348


--------------------------------------------------------------------------------------------------------




--------------------------------------- Iteration      1(   4)  ---------------------------------------


     EDDAV:  cpu time      7.5477: real time      7.5656
       DOS:  cpu time      0.0023: real time      0.0023
    --------------------------------------------
      LOOP:  cpu time      7.5500: real time      7.5680

 eigenvalue-minimisations  : 18624
 total energy-change (2. order) :-0.6863074E+01  (-0.6857324E+01)
 number of electron      58.0000000 magnetization       0.0000000
 augmentation part       58.0000000 magnetization       0.0000000

 Free energy of the ion-electron system (eV)
  ---------------------------------------------------
  alpha Z        PSCENC =        34.24319744
  Ewald energy   TEWEN  =      5250.87146173
  -Hartree energ DENC   =     -8564.16867115
  -exchange      EXHF   =         0.00000000
  -V(xc)+E(xc)   XCENC  =       134.52794924
  PAW double counting   =      3052.26160663    -3045.71919405
  entropy T*S    EENTRO =        -0.00000000
  eigenvalues    EBANDS =      -549.44773990
  atomic energy  EATOM  =      3646.96668234
  Solvation  Ediel_sol  =         0.00000000
  ---------------------------------------------------
  free energy    TOTEN  =       -40.46470774 eV

  energy without entropy =      -40.46470774  energy(sigma->0) =      -40.46470774


--------------------------------------------------------------------------------------------------------




--------------------------------------- Iteration      1(   5)  ---------------------------------------


     EDDAV:  cpu time      7.6883: real time      7.7057
       DOS:  cpu time      0.0023: real time      0.0023
    CHARGE:  cpu time      0.7389: real time      0.7404
    MIXING:  cpu time      0.0230: real time      0.0230
    --------------------------------------------
      LOOP:  cpu time      8.4526: real time      8.4715

 eigenvalue-minimisations  : 18894
 total energy-change (2. order) :-0.1512024E+00  (-0.1511536E+00)
 number of electron      58.0000019 magnetization      -0.0000000
 augmentation part        0.7774402 magnetization      -0.0001429

 Broyden mixing:
  rms(total) = 0.23018E+01    rms(broyden)= 0.23018E+01
  rms(prec ) = 0.25077E+01
  weight for this iteration     100.00

 Free energy of the ion-electron system (eV)
  ---------------------------------------------------
  alpha Z        PSCENC =        34.24319744
  Ewald energy   TEWEN  =      5250.87146173
  -Hartree energ DENC   =     -8564.16867115
  -exchange      EXHF   =         0.00000000
  -V(xc)+E(xc)   XCENC  =       134.52794924
  PAW double counting   =      3052.26160663    -3045.71919405
  entropy T*S    EENTRO =        -0.00000000
  eigenvalues    EBANDS =      -549.59894231
  atomic energy  EATOM  =      3646.96668234
  Solvation  Ediel_sol  =         0.00000000
  ---------------------------------------------------
  free energy    TOTEN  =       -40.61591014 eV

  energy without entropy =      -40.61591014  energy(sigma->0) =      -40.61591014


--------------------------------------------------------------------------------------------------------




--------------------------------------- Iteration      1(   6)  ---------------------------------------


    POTLOK:  cpu time      0.0250: real time      0.0253
    SETDIJ:  cpu time      0.0318: real time      0.0318
     EDDAV:  cpu time      7.9970: real time      8.0146
       DOS:  cpu time      0.0031: real time      0.0031
    CHARGE:  cpu time      0.7285: real time      0.7299
    MIXING:  cpu time      0.0236: real time      0.0237
    --------------------------------------------
      LOOP:  cpu time      8.8090: real time      8.8284

 eigenvalue-minimisations  : 20390
 total energy-change (2. order) : 0.1060050E+02  (-0.5578931E+01)
 number of electron      58.0000022 magnetization      -0.0000000
 augmentation part        3.6944588 magnetization       0.0002541

 Broyden mixing:
  rms(total) = 0.39133E+01    rms(broyden)= 0.39133E+01
  rms(prec ) = 0.39460E+01
  weight for this iteration     100.00

 eigenvalues of (default mixing * dielectric matrix)
  average eigenvalue GAMMA=   0.1143
  0.1143

 Free energy of the ion-electron system (eV)
  ---------------------------------------------------
  alpha Z        PSCENC =        34.24319744
  Ewald energy   TEWEN  =      5250.87146173
  -Hartree energ DENC   =     -8506.58084289
  -exchange      EXHF   =         0.00000000
  -V(xc)+E(xc)   XCENC  =       134.24846571
  PAW double counting   =      3360.76773400    -3350.30925843
  entropy T*S    EENTRO =        -0.00000000
  eigenvalues    EBANDS =      -600.22285200
  atomic energy  EATOM  =      3646.96668234
  Solvation  Ediel_sol  =         0.00000000
  ---------------------------------------------------
  free energy    TOTEN  =       -30.01541212 eV

  energy without entropy =      -30.01541212  energy(sigma->0) =      -30.01541212


--------------------------------------------------------------------------------------------------------




--------------------------------------- Iteration      1(   7)  ---------------------------------------


    POTLOK:  cpu time      0.0247: real time      0.0249
    SETDIJ:  cpu time      0.0317: real time      0.0318
     EDDAV:  cpu time      6.8631: real time      6.8785
       DOS:  cpu time      0.0025: real time      0.0025
    CHARGE:  cpu time      0.7232: real time      0.7246
    MIXING:  cpu time      0.0246: real time      0.0247
    --------------------------------------------
      LOOP:  cpu time      7.6698: real time      7.6870

 eigenvalue-minimisations  : 16510
 total energy-change (2. order) :-0.5338727E+00  (-0.1181070E+01)
 number of electron      58.0000021 magnetization      -0.0000000
 augmentation part        3.0979652 magnetization      -0.0001491

 Broyden mixing:
  rms(total) = 0.27021E+01    rms(broyden)= 0.27021E+01
  rms(prec ) = 0.27153E+01
  weight for this iteration     100.00

 eigenvalues of (default mixing * dielectric matrix)
  average eigenvalue GAMMA=   0.5182
  0.5182  0.5182

 Free energy of the ion-electron system (eV)
  ---------------------------------------------------
  alpha Z        PSCENC =        34.24319744
  Ewald energy   TEWEN  =      5250.87146173
  -Hartree energ DENC   =     -8512.61189396
  -exchange      EXHF   =         0.00000000
  -V(xc)+E(xc)   XCENC  =       133.56457485
  PAW double counting   =      3433.24416674    -3425.32965715
  entropy T*S    EENTRO =        -0.00000000
  eigenvalues    EBANDS =      -591.49781680
  atomic energy  EATOM  =      3646.96668234
  Solvation  Ediel_sol  =         0.00000000
  ---------------------------------------------------
  free energy    TOTEN  =       -30.54928482 eV

  energy without entropy =      -30.54928482  energy(sigma->0) =      -30.54928482


--------------------------------------------------------------------------------------------------------




--------------------------------------- Iteration      1(   8)  ---------------------------------------


    POTLOK:  cpu time      0.0249: real time      0.0252
    SETDIJ:  cpu time      0.0319: real time      0.0320
     EDDAV:  cpu time      7.1936: real time      7.2091
       DOS:  cpu time      0.0029: real time      0.0029
    CHARGE:  cpu time      0.7219: real time      0.7233
    MIXING:  cpu time      0.0250: real time      0.0251
    --------------------------------------------
      LOOP:  cpu time      8.0003: real time      8.0177

 eigenvalue-minimisations  : 17914
 total energy-change (2. order) : 0.1664405E+00  (-0.1762984E+00)
 number of electron      58.0000021 magnetization      -0.0000000
 augmentation part        2.9442105 magnetization       0.0009608

 Broyden mixing:
  rms(total) = 0.22688E+01    rms(broyden)= 0.22688E+01
  rms(prec ) = 0.22765E+01
  weight for this iteration     100.00

 eigenvalues of (default mixing * dielectric matrix)
  average eigenvalue GAMMA=   0.9231
  0.3442  0.9849  1.4402

 Free energy of the ion-electron system (eV)
  ---------------------------------------------------
  alpha Z        PSCENC =        34.24319744
  Ewald energy   TEWEN  =      5250.87146173
  -Hartree energ DENC   =     -8502.92668281
  -exchange      EXHF   =         0.00000000
  -V(xc)+E(xc)   XCENC  =       134.89174529
  PAW double counting   =      3843.89396071    -3837.51736136
  entropy T*S    EENTRO =        -0.00000000
  eigenvalues    EBANDS =      -600.80584767
  atomic energy  EATOM  =      3646.96668234
  Solvation  Ediel_sol  =         0.00000000
  ---------------------------------------------------
  free energy    TOTEN  =       -30.38284434 eV

  energy without entropy =      -30.38284434  energy(sigma->0) =      -30.38284434


--------------------------------------------------------------------------------------------------------




--------------------------------------- Iteration      1(   9)  ---------------------------------------


    POTLOK:  cpu time      0.0230: real time      0.0234
    SETDIJ:  cpu time      0.0324: real time      0.0324
     EDDAV:  cpu time      7.4499: real time      7.4661
       DOS:  cpu time      0.0030: real time      0.0030
    CHARGE:  cpu time      0.7231: real time      0.7245
    MIXING:  cpu time      0.0256: real time      0.0257
    --------------------------------------------
      LOOP:  cpu time      8.2569: real time      8.2752

 eigenvalue-minimisations  : 18464
 total energy-change (2. order) :-0.2285525E+00  (-0.5616545E-01)
 number of electron      58.0000021 magnetization      -0.0000000
 augmentation part        3.0696745 magnetization      -0.0007251

 Broyden mixing:
  rms(total) = 0.11346E+01    rms(broyden)= 0.11346E+01
  rms(prec ) = 0.11693E+01
  weight for this iteration     100.00

 eigenvalues of (default mixing * dielectric matrix)
  average eigenvalue GAMMA=   1.0136
  1.5131  1.5131  0.3688  0.6593

 Free energy of the ion-electron system (eV)
  ---------------------------------------------------
  alpha Z        PSCENC =        34.24319744
  Ewald energy   TEWEN  =      5250.87146173
  -Hartree energ DENC   =     -8489.34420925
  -exchange      EXHF   =         0.00000000
  -V(xc)+E(xc)   XCENC  =       134.44716552
  PAW double counting   =      4437.73220944    -4437.50614919
  entropy T*S    EENTRO =        -0.00000000
  eigenvalues    EBANDS =      -608.02175483
  atomic energy  EATOM  =      3646.96668234
  Solvation  Ediel_sol  =         0.00000000
  ---------------------------------------------------
  free energy    TOTEN  =       -30.61139680 eV

  energy without entropy =      -30.61139680  energy(sigma->0) =      -30.61139680


--------------------------------------------------------------------------------------------------------




--------------------------------------- Iteration      1(  10)  ---------------------------------------


    POTLOK:  cpu time      0.0249: real time      0.0251
    SETDIJ:  cpu time      0.0317: real time      0.0318
     EDDAV:  cpu time      6.0099: real time      6.0231
       DOS:  cpu time      0.0029: real time      0.0029
    CHARGE:  cpu time      0.7195: real time      0.7209
    MIXING:  cpu time      0.0268: real time      0.0269
    --------------------------------------------
      LOOP:  cpu time      6.8157: real time      6.8307

 eigenvalue-minimisations  : 13850
 total energy-change (2. order) : 0.3632704E+00  (-0.1457763E+00)
 number of electron      58.0000020 magnetization      -0.0000000
 augmentation part        2.6000862 magnetization       0.0009714

 Broyden mixing:
  rms(total) = 0.39386E+00    rms(broyden)= 0.39385E+00
  rms(prec ) = 0.39984E+00
  weight for this iteration     100.00

 eigenvalues of (default mixing * dielectric matrix)
  average eigenvalue GAMMA=   1.0135
  1.4226  1.4226  1.1827  0.3678  0.6720

 Free energy of the ion-electron system (eV)
  ---------------------------------------------------
  alpha Z        PSCENC =        34.24319744
  Ewald energy   TEWEN  =      5250.87146173
  -Hartree energ DENC   =     -8503.26905310
  -exchange      EXHF   =         0.00000000
  -V(xc)+E(xc)   XCENC  =       133.16792057
  PAW double counting   =      4322.59846891    -4324.02890597
  entropy T*S    EENTRO =        -0.00000000
  eigenvalues    EBANDS =      -590.79789831
  atomic energy  EATOM  =      3646.96668234
  Solvation  Ediel_sol  =         0.00000000
  ---------------------------------------------------
  free energy    TOTEN  =       -30.24812640 eV

  energy without entropy =      -30.24812640  energy(sigma->0) =      -30.24812640


--------------------------------------------------------------------------------------------------------




--------------------------------------- Iteration      1(  11)  ---------------------------------------


    POTLOK:  cpu time      0.0228: real time      0.0231
    SETDIJ:  cpu time      0.0324: real time      0.0325
     EDDAV:  cpu time      7.2829: real time      7.2993
       DOS:  cpu time      0.0028: real time      0.0028
    CHARGE:  cpu time      0.7231: real time      0.7246
    MIXING:  cpu time      0.0278: real time      0.0278
    --------------------------------------------
      LOOP:  cpu time      8.0918: real time      8.1101

 eigenvalue-minimisations  : 18066
 total energy-change (2. order) : 0.1413813E-01  (-0.1856033E-01)
 number of electron      58.0000020 magnetization      -0.0000000
 augmentation part        2.5394513 magnetization      -0.0002065

 Broyden mixing:
  rms(total) = 0.30988E+00    rms(broyden)= 0.30988E+00
  rms(prec ) = 0.31235E+00
  weight for this iteration     100.00

 eigenvalues of (default mixing * dielectric matrix)
  average eigenvalue GAMMA=   1.2016
  2.6381  1.4312  1.4312  0.3671  0.6710  0.6710

 Free energy of the ion-electron system (eV)
  ---------------------------------------------------
  alpha Z        PSCENC =        34.24319744
  Ewald energy   TEWEN  =      5250.87146173
  -Hartree energ DENC   =     -8505.48931576
  -exchange      EXHF   =         0.00000000
  -V(xc)+E(xc)   XCENC  =       133.62007783
  PAW double counting   =      4352.19006506    -4354.46461571
  entropy T*S    EENTRO =        -0.00000000
  eigenvalues    EBANDS =      -588.17154118
  atomic energy  EATOM  =      3646.96668234
  Solvation  Ediel_sol  =         0.00000000
  ---------------------------------------------------
  free energy    TOTEN  =       -30.23398827 eV

  energy without entropy =      -30.23398827  energy(sigma->0) =      -30.23398827


--------------------------------------------------------------------------------------------------------




--------------------------------------- Iteration      1(  12)  ---------------------------------------


    POTLOK:  cpu time      0.0232: real time      0.0234
    SETDIJ:  cpu time      0.0324: real time      0.0325
     EDDAV:  cpu time      7.4005: real time      7.4168
       DOS:  cpu time      0.0029: real time      0.0029
    CHARGE:  cpu time      0.7187: real time      0.7200
    MIXING:  cpu time      0.0283: real time      0.0284
    --------------------------------------------
      LOOP:  cpu time      8.2060: real time      8.2241

 eigenvalue-minimisations  : 18448
 total energy-change (2. order) :-0.2511753E-01  (-0.1248634E-01)
 number of electron      58.0000020 magnetization      -0.0000000
 augmentation part        2.6614609 magnetization      -0.0000945

 Broyden mixing:
  rms(total) = 0.23769E+00    rms(broyden)= 0.23769E+00
  rms(prec ) = 0.25016E+00
  weight for this iteration     100.00

 eigenvalues of (default mixing * dielectric matrix)
  average eigenvalue GAMMA=   1.1667
  2.3420  1.6460  1.6460  0.3668  0.7285  0.7188  0.7188

 Free energy of the ion-electron system (eV)
  ---------------------------------------------------
  alpha Z        PSCENC =        34.24319744
  Ewald energy   TEWEN  =      5250.87146173
  -Hartree energ DENC   =     -8506.52261416
  -exchange      EXHF   =         0.00000000
  -V(xc)+E(xc)   XCENC  =       133.83598928
  PAW double counting   =      4410.89162555    -4413.76930194
  entropy T*S    EENTRO =        -0.00000000
  eigenvalues    EBANDS =      -586.77614602
  atomic energy  EATOM  =      3646.96668234
  Solvation  Ediel_sol  =         0.00000000
  ---------------------------------------------------
  free energy    TOTEN  =       -30.25910580 eV

  energy without entropy =      -30.25910580  energy(sigma->0) =      -30.25910580


--------------------------------------------------------------------------------------------------------




--------------------------------------- Iteration      1(  13)  ---------------------------------------


    POTLOK:  cpu time      0.0245: real time      0.0248
    SETDIJ:  cpu time      0.0324: real time      0.0324
     EDDAV:  cpu time      6.5352: real time      6.5496
       DOS:  cpu time      0.0028: real time      0.0028
    CHARGE:  cpu time      0.7232: real time      0.7246
    MIXING:  cpu time      0.0296: real time      0.0297
    --------------------------------------------
      LOOP:  cpu time      7.3478: real time      7.3641

 eigenvalue-minimisations  : 15412
 total energy-change (2. order) : 0.2101742E-01  (-0.1108828E-01)
 number of electron      58.0000020 magnetization      -0.0000000
 augmentation part        2.5267923 magnetization       0.0000961

 Broyden mixing:
  rms(total) = 0.32345E-01    rms(broyden)= 0.32331E-01
  rms(prec ) = 0.33405E-01
  weight for this iteration     100.00

 eigenvalues of (default mixing * dielectric matrix)
  average eigenvalue GAMMA=   1.1329
  2.1323  1.6736  1.6736  0.3668  1.0207  0.8686  0.6637  0.6637

 Free energy of the ion-electron system (eV)
  ---------------------------------------------------
  alpha Z        PSCENC =        34.24319744
  Ewald energy   TEWEN  =      5250.87146173
  -Hartree energ DENC   =     -8509.82901554
  -exchange      EXHF   =         0.00000000
  -V(xc)+E(xc)   XCENC  =       133.47168227
  PAW double counting   =      4366.12675560    -4369.13822384
  entropy T*S    EENTRO =        -0.00000000
  eigenvalues    EBANDS =      -582.95062837
  atomic energy  EATOM  =      3646.96668234
  Solvation  Ediel_sol  =         0.00000000
  ---------------------------------------------------
  free energy    TOTEN  =       -30.23808838 eV

  energy without entropy =      -30.23808838  energy(sigma->0) =      -30.23808838


--------------------------------------------------------------------------------------------------------




--------------------------------------- Iteration      1(  14)  ---------------------------------------


    POTLOK:  cpu time      0.0233: real time      0.0236
    SETDIJ:  cpu time      0.0323: real time      0.0323
     EDDAV:  cpu time      7.1239: real time      7.1398
       DOS:  cpu time      0.0028: real time      0.0028
    CHARGE:  cpu time      0.7234: real time      0.7248
    MIXING:  cpu time      0.0303: real time      0.0304
    --------------------------------------------
      LOOP:  cpu time      7.9360: real time      7.9538

 eigenvalue-minimisations  : 17480
 total energy-change (2. order) :-0.3446189E-02  (-0.1610824E-02)
 number of electron      58.0000020 magnetization      -0.0000000
 augmentation part        2.5021925 magnetization      -0.0001573

 Broyden mixing:
  rms(total) = 0.16419E-01    rms(broyden)= 0.16410E-01
  rms(prec ) = 0.17477E-01
  weight for this iteration     100.00

 eigenvalues of (default mixing * dielectric matrix)
  average eigenvalue GAMMA=   1.1130
  2.3383  1.6866  1.6866  0.9897  0.9897  0.3668  0.6700  0.6700  0.6198

 Free energy of the ion-electron system (eV)
  ---------------------------------------------------
  alpha Z        PSCENC =        34.24319744
  Ewald energy   TEWEN  =      5250.87146173
  -Hartree energ DENC   =     -8510.24868955
  -exchange      EXHF   =         0.00000000
  -V(xc)+E(xc)   XCENC  =       133.40938171
  PAW double counting   =      4354.81457564    -4357.81357841
  entropy T*S    EENTRO =        -0.00000000
  eigenvalues    EBANDS =      -582.48456544
  atomic energy  EATOM  =      3646.96668234
  Solvation  Ediel_sol  =         0.00000000
  ---------------------------------------------------
  free energy    TOTEN  =       -30.24153457 eV

  energy without entropy =      -30.24153457  energy(sigma->0) =      -30.24153457


--------------------------------------------------------------------------------------------------------




--------------------------------------- Iteration      1(  15)  ---------------------------------------


    POTLOK:  cpu time      0.0246: real time      0.0250
    SETDIJ:  cpu time      0.0324: real time      0.0324
     EDDAV:  cpu time      6.5241: real time      6.5390
       DOS:  cpu time      0.0028: real time      0.0028
    CHARGE:  cpu time      0.7200: real time      0.7214
    MIXING:  cpu time      0.0318: real time      0.0318
    --------------------------------------------
      LOOP:  cpu time      7.3357: real time      7.3525

 eigenvalue-minimisations  : 15380
 total energy-change (2. order) :-0.3087812E-03  (-0.1463294E-03)
 number of electron      58.0000020 magnetization      -0.0000000
 augmentation part        2.5079362 magnetization       0.0000281

 Broyden mixing:
  rms(total) = 0.13613E-01    rms(broyden)= 0.13613E-01
  rms(prec ) = 0.14020E-01
  weight for this iteration     100.00

 eigenvalues of (default mixing * dielectric matrix)
  average eigenvalue GAMMA=   1.1313
  2.4674  1.6632  1.6632  1.0265  1.0265  1.0845  0.3668  0.6914  0.6914  0.6318

 Free energy of the ion-electron system (eV)
  ---------------------------------------------------
  alpha Z        PSCENC =        34.24319744
  Ewald energy   TEWEN  =      5250.87146173
  -Hartree energ DENC   =     -8510.03462911
  -exchange      EXHF   =         0.00000000
  -V(xc)+E(xc)   XCENC  =       133.41075504
  PAW double counting   =      4354.69151669    -4357.71143580
  entropy T*S    EENTRO =        -0.00000000
  eigenvalues    EBANDS =      -582.67939167
  atomic energy  EATOM  =      3646.96668234
  Solvation  Ediel_sol  =         0.00000000
  ---------------------------------------------------
  free energy    TOTEN  =       -30.24184335 eV

  energy without entropy =      -30.24184335  energy(sigma->0) =      -30.24184335


--------------------------------------------------------------------------------------------------------




--------------------------------------- Iteration      1(  16)  ---------------------------------------


    POTLOK:  cpu time      0.0230: real time      0.0233
    SETDIJ:  cpu time      0.0323: real time      0.0324
     EDDAV:  cpu time      7.5085: real time      7.5253
       DOS:  cpu time      0.0029: real time      0.0029
    CHARGE:  cpu time      0.7254: real time      0.7268
    MIXING:  cpu time      0.0332: real time      0.0333
    --------------------------------------------
      LOOP:  cpu time      8.3253: real time      8.3440

 eigenvalue-minimisations  : 18928
 total energy-change (2. order) :-0.1770244E-03  (-0.1939864E-04)
 number of electron      58.0000020 magnetization      -0.0000000
 augmentation part        2.5115693 magnetization       0.0000594

 Broyden mixing:
  rms(total) = 0.58775E-02    rms(broyden)= 0.58775E-02
  rms(prec ) = 0.61050E-02
  weight for this iteration     100.00

[...]
     28      -5.3690      1.00000
     29      -5.3193      1.00000
     30      -3.2052      0.00000
     31      -3.1742      0.00000
     32      -3.1104      0.00000
     33      -3.0750      0.00000
     34      -2.9877      0.00000

 k-point    95 :       0.2917    0.2917    0.0000
  band No.  band energies     occupation 
      1     -19.0567      1.00000
      2     -18.9248      1.00000
      3     -18.6278      1.00000
      4     -18.5302      1.00000
      5     -18.4704      1.00000
      6     -18.4410      1.00000
      7     -11.2476      1.00000
      8     -11.1857      1.00000
      9     -11.0720      1.00000
     10     -11.0653      1.00000
     11     -11.0551      1.00000
     12      -9.0949      1.00000
     13      -8.5788      1.00000
     14      -8.2265      1.00000
     15      -8.0574      1.00000
     16      -7.9023      1.00000
     17      -7.4649      1.00000
     18      -7.1592      1.00000
     19      -7.1274      1.00000
     20      -7.0108      1.00000
     21      -6.7132      1.00000
     22      -6.3973      1.00000
     23      -6.1248      1.00000
     24      -6.0564      1.00000
     25      -5.9547      1.00000
     26      -5.7865      1.00000
     27      -5.7050      1.00000
     28      -5.3669      1.00000
     29      -5.3177      1.00000
     30      -3.2030      0.00000
     31      -3.1719      0.00000
     32      -3.1094      0.00000
     33      -3.0791      0.00000
     34      -2.9879      0.00000

 k-point    96 :       0.3333    0.2917    0.0000
  band No.  band energies     occupation 
      1     -19.0252      1.00000
      2     -18.9553      1.00000
      3     -18.6305      1.00000
      4     -18.5245      1.00000
      5     -18.4740      1.00000
      6     -18.4428      1.00000
      7     -11.2493      1.00000
      8     -11.1853      1.00000
      9     -11.0710      1.00000
     10     -11.0627      1.00000
     11     -11.0578      1.00000
     12      -9.0771      1.00000
     13      -8.5900      1.00000
     14      -8.2177      1.00000
     15      -8.0527      1.00000
     16      -7.9197      1.00000
     17      -7.4577      1.00000
     18      -7.1567      1.00000
     19      -7.1437      1.00000
     20      -6.9944      1.00000
     21      -6.7206      1.00000
     22      -6.4010      1.00000
     23      -6.1287      1.00000
     24      -6.0661      1.00000
     25      -5.9437      1.00000
     26      -5.7888      1.00000
     27      -5.6999      1.00000
     28      -5.3671      1.00000
     29      -5.3143      1.00000
     30      -3.2003      0.00000
     31      -3.1696      0.00000
     32      -3.1105      0.00000
     33      -3.0814      0.00000
     34      -2.9871      0.00000

 k-point    97 :      -0.3333   -0.3750    0.0000
  band No.  band energies     occupation 
      1     -19.0252      1.00000
      2     -18.9553      1.00000
      3     -18.6305      1.00000
      4     -18.5245      1.00000
      5     -18.4740      1.00000
      6     -18.4428      1.00000
      7     -11.2494      1.00000
      8     -11.1853      1.00000
      9     -11.0710      1.00000
     10     -11.0626      1.00000
     11     -11.0578      1.00000
     12      -9.0771      1.00000
     13      -8.5900      1.00000
     14      -8.2177      1.00000
     15      -8.0527      1.00000
     16      -7.9197      1.00000
     17      -7.4577      1.00000
     18      -7.1567      1.00000
     19      -7.1437      1.00000
     20      -6.9944      1.00000
     21      -6.7206      1.00000
     22      -6.4010      1.00000
     23      -6.1288      1.00000
     24      -6.0660      1.00000
     25      -5.9437      1.00000
     26      -5.7888      1.00000
     27      -5.6999      1.00000
     28      -5.3671      1.00000
     29      -5.3143      1.00000
     30      -3.2003      0.00000
     31      -3.1696      0.00000
     32      -3.1105      0.00000
     33      -3.0814      0.00000
     34      -2.9871      0.00000

 k-point    98 :       0.3333    0.3333    0.0000
  band No.  band energies     occupation 
      1     -18.9932      1.00000
      2     -18.9866      1.00000
      3     -18.6320      1.00000
      4     -18.5223      1.00000
      5     -18.4751      1.00000
      6     -18.4438      1.00000
      7     -11.2502      1.00000
      8     -11.1850      1.00000
      9     -11.0695      1.00000
     10     -11.0611      1.00000
     11     -11.0606      1.00000
     12      -9.0680      1.00000
     13      -8.5962      1.00000
     14      -8.2103      1.00000
     15      -8.0540      1.00000
     16      -7.9292      1.00000
     17      -7.4553      1.00000
     18      -7.1690      1.00000
     19      -7.1361      1.00000
     20      -6.9886      1.00000
     21      -6.7207      1.00000
     22      -6.4052      1.00000
     23      -6.1173      1.00000
     24      -6.0787      1.00000
     25      -5.9414      1.00000
     26      -5.7908      1.00000
     27      -5.6985      1.00000
     28      -5.3668      1.00000
     29      -5.3121      1.00000
     30      -3.1983      0.00000
     31      -3.1675      0.00000
     32      -3.1111      0.00000
     33      -3.0838      0.00000
     34      -2.9867      0.00000


--------------------------------------------------------------------------------------------------------


 soft charge-density along one line, spin component            1
         0         1         2         3         4         5         6         7         8         9
 total charge-density along one line
 
 soft charge-density along one line, spin component            2
         0         1         2         3         4         5         6         7         8         9
 total charge-density along one line
 
 pseudopotential strength for first ion, spin component:            1
-16.024   0.018   0.000  -0.000   0.000 -16.338   0.014   0.000
  0.018 -16.009  -0.000  -0.000   0.000   0.014 -16.327  -0.000
  0.000  -0.000 -16.043  -0.000  -0.000   0.000  -0.000 -16.356
 -0.000  -0.000  -0.000 -16.009  -0.018  -0.000  -0.000  -0.000
  0.000   0.000  -0.000  -0.018 -16.024   0.000   0.000  -0.000
-16.338   0.014   0.000  -0.000   0.000 -16.634   0.010   0.000
  0.014 -16.327  -0.000  -0.000   0.000   0.010 -16.625  -0.000
  0.000  -0.000 -16.356  -0.000  -0.000   0.000  -0.000 -16.648
 -0.000  -0.000  -0.000 -16.327  -0.014  -0.000  -0.000  -0.000
  0.000   0.000  -0.000  -0.014 -16.338   0.000   0.000  -0.000
  0.000   0.000   0.001   0.000  -0.000   0.000   0.000   0.001
  0.000   0.000   0.001   0.000  -0.000   0.000   0.000   0.001
  0.000   0.000   0.000  -0.000   0.002   0.000   0.000   0.000
 -0.000  -0.000   0.000   0.000  -0.000  -0.000  -0.000   0.000
  0.002  -0.000  -0.000   0.000   0.000   0.002  -0.000  -0.000
  0.000   0.000   0.000  -0.000   0.002   0.000   0.000   0.000
 -0.000  -0.000   0.000   0.000  -0.000  -0.000  -0.000   0.000
  0.002  -0.000  -0.000   0.000   0.000   0.002  -0.000  -0.000
 pseudopotential strength for first ion, spin component:            2
-10.402  -0.512   0.000   0.000   0.000 -10.754  -0.518   0.000
 -0.512 -10.791  -0.000  -0.000   0.000  -0.518 -11.147  -0.000
  0.000  -0.000  -9.998  -0.000  -0.000   0.000  -0.000 -10.344
  0.000  -0.000  -0.000 -10.791   0.512   0.000  -0.000  -0.000
  0.000   0.000  -0.000   0.512 -10.402   0.000   0.000  -0.000
-10.754  -0.518   0.000   0.000   0.000 -11.056  -0.529   0.000
 -0.518 -11.147  -0.000  -0.000   0.000  -0.529 -11.457  -0.000
  0.000  -0.000 -10.344  -0.000  -0.000   0.000  -0.000 -10.637
  0.000  -0.000  -0.000 -11.147   0.518   0.000  -0.000  -0.000
  0.000   0.000  -0.000   0.518 -10.754   0.000   0.000  -0.000
  0.000   0.000   0.000   0.000  -0.000   0.000   0.000   0.000
  0.000   0.000   0.000   0.000  -0.000   0.000   0.000   0.000
  0.000   0.000   0.000  -0.000  -0.002   0.000   0.000   0.000
 -0.000  -0.000   0.000   0.000  -0.000  -0.000  -0.000   0.000
 -0.002  -0.000  -0.000   0.000   0.000  -0.002  -0.000  -0.000
  0.000   0.000   0.000  -0.000  -0.003   0.000   0.000   0.000
 -0.000  -0.000   0.000   0.000  -0.000  -0.000  -0.000   0.000
 -0.003  -0.000  -0.000   0.000   0.000  -0.002  -0.000  -0.000
 total augmentation occupancy for first ion, spin component:            1
  7.041   2.306  -0.000  -0.000   0.000  -4.867  -2.249   0.000   0.000   0.000  -0.000   0.000   0.000  -0.000  -0.099  -0.000
  2.306   8.657  -0.000   0.000  -0.000  -2.249  -6.432   0.000   0.000   0.000  -0.000  -0.000   0.000   0.000   0.007   0.000
 -0.000  -0.000   5.285   0.000  -0.000   0.000   0.000  -3.149  -0.000   0.000   0.035  -0.003   0.000   0.000   0.000  -0.000
 -0.000   0.000   0.000   8.657  -2.306   0.000  -0.000  -0.000  -6.432   2.249   0.000   0.000  -0.007  -0.000   0.000  -0.000
  0.000  -0.000  -0.000  -2.306   7.041  -0.000   0.000   0.000   2.249  -4.867  -0.000   0.000  -0.099  -0.000  -0.000   0.007
 -4.867  -2.249   0.000   0.000  -0.000   3.935   2.322  -0.000  -0.000   0.000   0.000  -0.000  -0.000   0.000   0.110   0.000
 -2.249  -6.432   0.000  -0.000   0.000   2.322   5.547  -0.000   0.000  -0.000   0.000   0.000  -0.000  -0.000  -0.010   0.000
  0.000   0.000  -3.149  -0.000   0.000  -0.000  -0.000   2.151   0.000  -0.000  -0.042   0.005  -0.000  -0.000  -0.000   0.000
  0.000   0.000  -0.000  -6.432   2.249  -0.000   0.000   0.000   5.547  -2.322  -0.000  -0.000   0.010  -0.000  -0.000   0.000
  0.000   0.000   0.000   2.249  -4.867   0.000  -0.000  -0.000  -2.322   3.935   0.000  -0.000   0.110   0.000   0.000  -0.010
 -0.000  -0.000   0.035   0.000  -0.000   0.000   0.000  -0.042  -0.000   0.000   1.523  -0.149   0.000  -0.000  -0.000   0.000
  0.000  -0.000  -0.003   0.000   0.000  -0.000   0.000   0.005  -0.000  -0.000  -0.149   0.032   0.000   0.000  -0.000   0.000
  0.000   0.000   0.000  -0.007  -0.099  -0.000  -0.000  -0.000   0.010   0.110   0.000   0.000   0.229   0.000   0.000  -0.021
 -0.000   0.000   0.000  -0.000  -0.000   0.000  -0.000  -0.000  -0.000   0.000  -0.000   0.000   0.000   0.225   0.000  -0.000
 -0.099   0.007   0.000   0.000  -0.000   0.110  -0.010  -0.000  -0.000   0.000  -0.000  -0.000   0.000   0.000   0.229   0.000
 -0.000   0.000  -0.000  -0.000   0.007   0.000   0.000   0.000   0.000  -0.010   0.000  -0.000  -0.021  -0.000   0.000   0.003
 -0.000  -0.000   0.000   0.000  -0.000   0.000   0.000  -0.000  -0.000   0.000   0.000  -0.000  -0.000  -0.020  -0.000   0.000
  0.007   0.000  -0.000   0.000   0.000  -0.010  -0.000   0.000   0.000  -0.000  -0.000   0.000  -0.000  -0.000  -0.021   0.000
 total augmentation occupancy for first ion, spin component:            2
  6.689   2.014  -0.000  -0.000   0.000  -4.326  -1.849   0.000   0.000   0.000  -0.000  -0.000  -0.000   0.000  -0.041  -0.000
  2.014   8.114  -0.000   0.000  -0.000  -1.849  -5.640   0.000  -0.000   0.000  -0.000   0.000  -0.000   0.000   0.016   0.000
 -0.000  -0.000   5.152   0.000  -0.000   0.000   0.000  -2.916  -0.000   0.000   0.005   0.003   0.000  -0.000   0.000   0.000
 -0.000   0.000   0.000   8.114  -2.014   0.000   0.000  -0.000  -5.640   1.849   0.000   0.000  -0.016   0.000  -0.000   0.000
  0.000  -0.000  -0.000  -2.014   6.689  -0.000   0.000   0.000   1.849  -4.326  -0.000  -0.000  -0.041   0.000   0.000  -0.002
 -4.326  -1.849   0.000   0.000  -0.000   2.894   1.566  -0.000  -0.000   0.000   0.000   0.000   0.000  -0.000   0.025   0.000
 -1.849  -5.640   0.000   0.000   0.000   1.566   4.008  -0.000   0.000  -0.000   0.000   0.000   0.000   0.000  -0.010  -0.000
  0.000   0.000  -2.916  -0.000   0.000  -0.000  -0.000   1.705   0.000  -0.000  -0.001  -0.002  -0.000   0.000  -0.000  -0.000
  0.000  -0.000  -0.000  -5.640   1.849  -0.000   0.000   0.000   4.008  -1.566   0.000  -0.000   0.010  -0.000   0.000  -0.000
  0.000   0.000   0.000   1.849  -4.326   0.000  -0.000  -0.000  -1.566   2.894   0.000   0.000   0.025  -0.000  -0.000   0.002
 -0.000  -0.000   0.005   0.000  -0.000   0.000   0.000  -0.001  -0.000   0.000  -0.261   0.107   0.000  -0.000  -0.000   0.000
 -0.000  -0.000   0.003   0.000  -0.000   0.000   0.000  -0.002   0.000   0.000   0.107  -0.013   0.000  -0.000  -0.000   0.000
 -0.000  -0.000   0.000  -0.016  -0.041   0.000   0.000  -0.000   0.010   0.025   0.000   0.000  -0.005  -0.000  -0.000   0.007
  0.000  -0.000  -0.000   0.000   0.000  -0.000   0.000   0.000  -0.000  -0.000  -0.000  -0.000  -0.000  -0.004   0.000   0.000
 -0.041   0.016   0.000  -0.000   0.000   0.025  -0.010  -0.000   0.000  -0.000   0.000  -0.000  -0.000   0.000  -0.005   0.000
 -0.000   0.000   0.000   0.000  -0.002   0.000  -0.000  -0.000  -0.000   0.002   0.000   0.000   0.007   0.000   0.000  -0.001
 -0.000  -0.000   0.000   0.000  -0.000   0.000   0.000  -0.000  -0.000   0.000   0.000   0.000   0.000   0.007   0.000  -0.000
 -0.002  -0.000  -0.000   0.000   0.000   0.002   0.000   0.000  -0.000  -0.000  -0.000  -0.000  -0.000  -0.000   0.007  -0.000


------------------------ aborting loop because EDIFF is reached ----------------------------------------


    CHARGE:  cpu time      0.9342: real time      0.9361
    FORLOC:  cpu time      0.0080: real time      0.0080
    FORNL :  cpu time      6.3727: real time      6.3846
    STRESS:  cpu time     16.7961: real time     16.8328
    FORCOR:  cpu time      0.0256: real time      0.0257
    FORHAR:  cpu time      0.0057: real time      0.0057
    MIXING:  cpu time      0.0295: real time      0.0296
    OFIELD:  cpu time      0.0000: real time      0.0000

  FORCE on cell =-STRESS in cart. coord.  units (eV):
  Direction    XX          YY          ZZ          XY          YZ          ZX
  --------------------------------------------------------------------------------------
  Alpha Z    34.29009    34.29009    34.29009
  Ewald    7094.06420  7094.06666 -8948.08786     0.00211    -0.00037     0.00334
  Hartree  7905.67895  7905.68027 -7313.28729     0.00153     0.00002    -0.00017
  E(xc)    -236.18411  -236.18413  -236.46993    -0.00001     0.00000    -0.00000
  Local  -16043.02375-16043.02622 15213.39790    -0.00369     0.00016    -0.00217
  n-local   453.19328   453.57273   453.02911    -0.16060     0.07525    -0.08516
  augment   -34.86468   -34.86478   -35.27796     0.00000     0.00003    -0.00013
  Kinetic   826.96054   826.65082   832.43082     0.06037    -0.01869    -0.04221
  Fock        0.00000     0.00000     0.00000     0.00000     0.00000     0.00000
  -------------------------------------------------------------------------------------
  Total       0.14998     0.14998     0.02488    -0.00000     0.00000     0.00000
  in kB       0.40152     0.40151     0.06662    -0.00000     0.00000     0.00000
  external pressure =        0.29 kB  Pullay stress =        0.00 kB


 VOLUME and BASIS-vectors are now :
 -----------------------------------------------------------------------------
  energy-cutoff  :      520.00
  volume of cell :      598.46
      direct lattice vectors                 reciprocal lattice vectors
     6.194286048  0.000000004  0.000000000     0.161439106  0.093206969 -0.000000000
    -3.097143022  5.364405766  0.000000000    -0.000000000  0.186413937 -0.000000000
     0.000000000  0.000000000 18.010266605     0.000000000 -0.000000000  0.055523887

  length of vectors
     6.194286048  6.194283181 18.010266605     0.186413851  0.186413937  0.055523887


 FORCES acting on ions
    electron-ion (+dipol)            ewald-force                    non-local-force                 convergence-correction
 -----------------------------------------------------------------------------------------------
   0.289E-03 -.225E-03 -.834E-01   -.119E-02 0.895E-03 0.871E-01   -.867E-18 0.000E+00 0.540E-03   -.251E-06 -.497E-06 -.355E-02
   -.465E-03 0.350E-03 0.727E-01   -.166E-03 0.632E-04 -.693E-01   0.000E+00 -.867E-18 0.102E-02   0.317E-06 0.395E-07 -.339E-02
   -.876E+02 -.841E-02 -.498E+03   0.891E+02 -.771E-03 0.501E+03   -.152E+01 0.585E-03 -.235E+01   0.576E-02 -.133E-03 -.123E-01
   0.438E+02 -.759E+02 -.498E+03   -.446E+02 0.772E+02 0.501E+03   0.759E+00 -.132E+01 -.235E+01   -.276E-02 0.505E-02 -.123E-01
   0.438E+02 0.759E+02 -.498E+03   -.446E+02 -.772E+02 0.501E+03   0.760E+00 0.132E+01 -.235E+01   -.299E-02 -.492E-02 -.123E-01
   -.438E+02 -.759E+02 0.498E+03   0.446E+02 0.772E+02 -.501E+03   -.760E+00 -.131E+01 0.235E+01   0.296E-02 0.499E-02 0.104E-01
   0.877E+02 -.123E-01 0.498E+03   -.891E+02 0.379E-02 -.501E+03   0.152E+01 -.493E-03 0.235E+01   -.580E-02 0.661E-04 0.104E-01
   -.438E+02 0.759E+02 0.498E+03   0.446E+02 -.772E+02 -.501E+03   -.759E+00 0.132E+01 0.235E+01   0.284E-02 -.505E-02 0.104E-01
 -----------------------------------------------------------------------------------------------
   0.615E-01 -.353E-01 0.144E-01   0.000E+00 -.142E-13 0.171E-12   0.000E+00 0.000E+00 -.216E-02   0.285E-06 -.585E-06 -.127E-01
 
 
 POSITION                                       TOTAL-FORCE (eV/Angst)
 -----------------------------------------------------------------------------------
     -3.09714      5.36440      6.53168         0.000000      0.000000      0.000739
      3.09714      1.78814      6.53135        -0.000000      0.000000      0.001097
      3.93116      3.57618      7.89958        -0.004758      0.000474      0.015316
      1.13163      1.61639      7.89956         0.001968     -0.004358      0.015316
      4.22861      0.17185      7.89957         0.002790      0.003884      0.015316
      5.06267      1.61613      5.16364        -0.002226     -0.003326     -0.015928
      2.26332      3.57636      5.16366         0.003993     -0.000265     -0.015928
      1.96540      0.17194      5.16362        -0.001767      0.003591     -0.015928
 -----------------------------------------------------------------------------------
    total drift:                                0.061505     -0.035291     -0.000445


--------------------------------------------------------------------------------------------------------



  FREE ENERGIE OF THE ION-ELECTRON SYSTEM (eV)
  ---------------------------------------------------
  free  energy   TOTEN  =       -30.24257424 eV

  energy  without entropy=      -30.24257424  energy(sigma->0) =      -30.24257424
 
 d Force = 0.3497705E-05[-0.883E-05, 0.158E-04]  d Energy =-0.1284784E-04 0.163E-04
 d Force =-0.8652173E+00[-0.865E+00,-0.865E+00]  d Ewald  = 0.4182064E+01-0.505E+01


--------------------------------------------------------------------------------------------------------


    POTLOK:  cpu time      0.0705: real time      0.0723


--------------------------------------------------------------------------------------------------------




--------------------------------------------------------------------------------------------------------


  
 reached required accuracy - stopping structural energy minimisation
     LOOP+:  cpu time     55.9792: real time     56.1358
    4ORBIT:  cpu time      0.0000: real time      0.0000

 total amount of memory used by VASP MPI-rank0  2550132. kBytes
=======================================================================

   base      :      30000. kBytes
   nonl-proj :     459812. kBytes
   fftplans  :      88392. kBytes
   grid      :     233496. kBytes
   one-center:        248. kBytes
   wavefun   :    1738184. kBytes
 
  
  
 General timing and accounting informations for this job:
 ========================================================
  
                  Total CPU time used (sec):      321.097
                            User time (sec):      318.883
                          System time (sec):        2.214
                         Elapsed time (sec):      322.215
  
                   Maximum memory used (kb):     4344956.
                   Average memory used (kb):          N/A
  
                          Minor page faults:       664024
                          Major page faults:            0
                 Voluntary context switches:         7548
