 vasp.6.4.1 05Apr23 (build Aug  9 2024 23:13:06) complex                         
 executed on              LinuxNV date 2025.10.29  08:42:44
 running    1 mpi-ranks, with    1 threads/rank, on    1 nodes
 distrk:  each k-point on    1 cores,    1 groups
 distr:  one band on NCORE=   1 cores,    1 groups
 OpenACC runtime initialized ...    1 GPUs detected


--------------------------------------------------------------------------------------------------------


 INCAR:
   PREC = Accurate
   EDIFF = 1E-5
   ENCUT = 520
   NSW = 300
   IBRION = 2
   ISMEAR = 0
   SIGMA = 0.05
   ISIF = 3
   ISPIN = 2
   MAGMOM = 6 6 0 0 0 0 0 0
   LREAL = F
   LWAVE = F
   LCHARG = F
   IVDW = 11
   LDAU = .TRUE.
   LDAUTYPE = 2
   LDAUL = 2  -1
   LDAUU = 4.5 0.0
   LDAUJ = 0.9 0.0

 POTCAR:    PAW_PBE Fe 06Sep2000                  
 POTCAR:    PAW_PBE Cl 06Sep2000                  
 POTCAR:    PAW_PBE Fe 06Sep2000                  
   VRHFIN =Fe:  d7 s1                                                                               
   LEXCH  = PE                                                                                      
   EATOM  =   594.3153 eV,   43.6809 Ry                                                             
                                                                                                    
   TITEL  = PAW_PBE Fe 06Sep2000                                                                    
   LULTRA =        F    use ultrasoft PP ?                                                          
   IUNSCR =        1    unscreen: 0-lin 1-nonlin 2-no                                               
   RPACOR =    2.000    partial core radius                                                         
   POMASS =   55.847; ZVAL   =    8.000    mass and valenz                                          
   RCORE  =    2.300    outmost cutoff radius                                                       
   RWIGS  =    2.460; RWIGS  =    1.302    wigner-seitz radius (au A)                               
   ENMAX  =  267.882; ENMIN  =  200.911 eV                                                          
   RCLOC  =    1.701    cutoff for local pot                                                        
   LCOR   =        T    correct aug charges                                                         
   LPAW   =        T    paw PP                                                                      
   EAUG   =  511.368                                                                                
   DEXC   =    0.000                                                                                
   RMAX   =    2.356    core radius for proj-oper                                                   
   RAUG   =    1.300    factor for augmentation sphere                                              
   RDEP   =    2.442    radius for radial grids                                                     
   RDEPT  =    1.890    core radius for aug-charge                                                  
                                                                                                    
   Atomic configuration                                                                             
    9 entries                                                                                       
     n  l   j            E        occ.                                                              
     1  0  0.50     -6993.8440   2.0000                                                             
     2  0  0.50      -814.6047   2.0000                                                             
     2  1  1.50      -693.3689   6.0000                                                             
     3  0  0.50       -89.4732   2.0000                                                             
     3  1  1.50       -55.6373   6.0000                                                             
     3  2  2.50        -3.8151   7.0000                                                             
     4  0  0.50        -4.2551   1.0000                                                             
     4  1  1.50        -3.4015   0.0000                                                             
     4  3  2.50        -1.3606   0.0000                                                             
   Description                                                                                      
     l       E           TYP  RCUT    TYP  RCUT                                                     
     2     -3.8151135     23  2.300                                                                 
     2     -5.1756961     23  2.300                                                                 
     0     -4.2550963     23  2.300                                                                 
     0      7.2035603     23  2.300                                                                 
     1     -2.7211652     23  2.300                                                                 
     1     18.4316424     23  2.300                                                                 
  local pseudopotential read in
  partial core-charges read in
  partial kinetic energy density read in
  atomic valenz-charges read in
  non local Contribution for L=            2  read in
    real space projection operators read in
  non local Contribution for L=            2  read in
    real space projection operators read in
  non local Contribution for L=            0  read in
    real space projection operators read in
  non local Contribution for L=            0  read in
    real space projection operators read in
  non local Contribution for L=            1  read in
    real space projection operators read in
  non local Contribution for L=            1  read in
    real space projection operators read in
    PAW grid and wavefunctions read in
 
   number of l-projection  operators is LMAX  =            6
   number of lm-projection operators is LMMAX =           18
 
 POTCAR:    PAW_PBE Cl 06Sep2000                  
   VRHFIN =Cl: s2p5                                                                                 
   LEXCH  = PE                                                                                      
   EATOM  =   409.7259 eV,   30.1140 Ry                                                             
                                                                                                    
   TITEL  = PAW_PBE Cl 06Sep2000                                                                    
   LULTRA =        F    use ultrasoft PP ?                                                          
   IUNSCR =        1    unscreen: 0-lin 1-nonlin 2-no                                               
   RPACOR =    1.500    partial core radius                                                         
   POMASS =   35.453; ZVAL   =    7.000    mass and valenz                                          
   RCORE  =    1.900    outmost cutoff radius                                                       
   RWIGS  =    2.100; RWIGS  =    1.111    wigner-seitz radius (au A)                               
   ENMAX  =  262.472; ENMIN  =  196.854 eV                                                          
   ICORE  =        2    local potential                                                             
   LCOR   =        T    correct aug charges                                                         
   LPAW   =        T    paw PP                                                                      
   EAUG   =  356.192                                                                                
   DEXC   =    0.000                                                                                
   RMAX   =    1.945    core radius for proj-oper                                                   
   RAUG   =    1.300    factor for augmentation sphere                                              
   RDEP   =    2.020    radius for radial grids                                                     
   RDEPT  =    1.678    core radius for aug-charge                                                  
                                                                                                    
   Atomic configuration                                                                             
    6 entries                                                                                       
     n  l   j            E        occ.                                                              
     1  0  0.50     -2751.1850   2.0000                                                             
     2  0  0.50      -252.6861   2.0000                                                             
     2  1  1.50      -191.6157   6.0000                                                             
     3  0  0.50       -20.6916   2.0000                                                             
     3  1  0.50        -8.5949   5.0000                                                             
     3  2  1.50        -8.1635   0.0000                                                             
   Description                                                                                      
     l       E           TYP  RCUT    TYP  RCUT                                                     
     0    -20.6915656     23  1.900                                                                 
     0    -22.0521482     23  1.900                                                                 
     1     -8.5948577     23  1.900                                                                 
     1     -5.3847331     23  1.900                                                                 
     2     -8.1634956     23  1.900                                                                 
  local pseudopotential read in
  partial core-charges read in
  partial kinetic energy density read in
  atomic valenz-charges read in
  non local Contribution for L=            0  read in
    real space projection operators read in
  non local Contribution for L=            0  read in
    real space projection operators read in
  non local Contribution for L=            1  read in
    real space projection operators read in
  non local Contribution for L=            1  read in
    real space projection operators read in
    PAW grid and wavefunctions read in
 
   number of l-projection  operators is LMAX  =            4
   number of lm-projection operators is LMMAX =            8
 
  PAW_PBE Fe 06Sep2000                  :
 energy of atom  1       EATOM= -594.3153
 kinetic energy error for atom=    0.0026 (will be added to EATOM!!)
  PAW_PBE Cl 06Sep2000                  :
 energy of atom  2       EATOM= -409.7259
 kinetic energy error for atom=    0.0023 (will be added to EATOM!!)
 
 
 POSCAR: Fe Cl
  positions in direct lattice
  velocities in cartesian coordinates
 exchange correlation table for  LEXCH =        8
   RHO(1)=    0.500       N(1)  =     2000
   RHO(2)=  100.500       N(2)  =     4000
 


--------------------------------------------------------------------------------------------------------


 ion  position               nearest neighbor table
   1  0.000  1.000  0.362-   7 2.41   8 2.41   6 2.41   4 2.42   3 2.42   5 2.42
   2  0.667  0.333  0.363-   5 2.41   4 2.41   3 2.41   6 2.42   7 2.42   8 2.42
   3  0.972  0.666  0.440-   2 2.41   1 2.42
   4  0.334  0.305  0.440-   2 2.41   1 2.42
   5  0.695  0.028  0.440-   2 2.41   1 2.42
   6  0.972  0.305  0.285-   1 2.41   2 2.42
   7  0.695  0.667  0.285-   1 2.41   2 2.42
   8  0.333  0.028  0.285-   1 2.41   2 2.42
 
  LATTYP: Found a hexagonal cell.
 ALAT       =     6.1732170249
 C/A-ratio  =     2.9117638891
  
  Lattice vectors:
  
 A1 = (   6.1732170249,   0.0000000000,   0.0000000000)
 A2 = (  -3.0866085077,   5.3461594704,   0.0000000000)
 A3 = (   0.0000000000,   0.0000000000,  17.9749504130)


Analysis of symmetry for initial positions (statically):
=====================================================================
 Subroutine PRICEL returns:
 Original cell was already a primitive cell.
 

 Routine SETGRP: Setting up the symmetry group for a 
 hexagonal supercell.


 Subroutine GETGRP returns: Found  3 space group operations
 (whereof  3 operations were pure point group operations)
 out of a pool of 24 trial point group operations.


The static configuration has the point symmetry C_3 .


Analysis of symmetry for dynamics (positions and initial velocities):
=====================================================================
 Subroutine PRICEL returns:
 Original cell was already a primitive cell.
 

 Routine SETGRP: Setting up the symmetry group for a 
 hexagonal supercell.


 Subroutine GETGRP returns: Found  3 space group operations
 (whereof  3 operations were pure point group operations)
 out of a pool of 24 trial point group operations.


The dynamic configuration has the point symmetry C_3 .


Analysis of structural, dynamic, and magnetic symmetry:
=====================================================================
 Subroutine PRICEL returns:
 Original cell was already a primitive cell.
 

 Routine SETGRP: Setting up the symmetry group for a 
 hexagonal supercell.


 Subroutine GETGRP returns: Found  3 space group operations
 (whereof  3 operations were pure point group operations)
 out of a pool of 24 trial point group operations.


The overall configuration has the point symmetry C_3 .


 Subroutine INISYM returns: Found  3 space group operations
 (whereof  3 operations are pure point group operations),
 and found     1 'primitive' translations


----------------------------------------------------------------------------------------

                                     Primitive cell                                     

  volume of cell :     593.2273

  direct lattice vectors                    reciprocal lattice vectors
     6.173217025  0.000000000  0.000000000     0.161990093  0.093525081 -0.000000000
    -3.086608508  5.346159470  0.000000000     0.000000000  0.187050163  0.000000000
     0.000000000  0.000000000 17.974950413     0.000000000 -0.000000000  0.055632977

  length of vectors
     6.173217025  6.173214168 17.974950413     0.187050076  0.187050163  0.055632977

  position of ions in fractional coordinates (direct lattice)
     0.000000915  0.999999362  0.361996036
     0.666665863  0.333333877  0.363469400
     0.971859687  0.666491515  0.439882239
     0.333508242  0.305368530  0.439881325
     0.694629529  0.028143198  0.439881740
     0.971767051  0.304945907  0.285386996
     0.695053262  0.666825276  0.285387899
     0.333175492  0.028232319  0.285385617

  ion indices of the primitive-cell ions
   primitive index   ion index
                 1           1
                 2           2
                 3           3
                 4           4
                 5           5
                 6           6
                 7           7
                 8           8

----------------------------------------------------------------------------------------

 
 
 KPOINTS: Automatic mesh                          

Automatic generation of k-mesh.
 Grid dimensions read from file:
 generate k-points for:   24   24    1

 Generating k-lattice:

  Cartesian coordinates                     Fractional coordinates (reciprocal lattice)
     0.006749587  0.003896878 -0.000000000     0.041666667 -0.000000000  0.000000000
     0.000000000  0.007793757  0.000000000     0.000000000  0.041666667  0.000000000
     0.000000000 -0.000000000  0.055632977     0.000000000  0.000000000  1.000000000

  Length of vectors
     0.007793753  0.007793757  0.055632977

  Shift w.r.t. Gamma in fractional coordinates (k-lattice)
     0.000000000  0.000000000  0.000000000

 
 Subroutine IBZKPT returns following result:
 ===========================================
 
 Found     98 irreducible k-points:
 
 Following reciprocal coordinates:
            Coordinates               Weight
  0.000000  0.000000  0.000000      1.000000
  0.041667  0.000000  0.000000      6.000000
  0.083333  0.000000  0.000000      6.000000
  0.125000  0.000000  0.000000      6.000000
  0.166667  0.000000  0.000000      6.000000
  0.208333  0.000000  0.000000      6.000000
  0.250000  0.000000  0.000000      6.000000
  0.291667  0.000000  0.000000      6.000000
  0.333333  0.000000  0.000000      6.000000
  0.375000  0.000000  0.000000      6.000000
  0.416667  0.000000  0.000000      6.000000
  0.458333  0.000000  0.000000      6.000000
  0.500000  0.000000  0.000000      3.000000
  0.041667  0.041667  0.000000      6.000000
  0.083333  0.041667  0.000000      6.000000
 -0.083333  0.125000  0.000000      6.000000
  0.125000  0.041667  0.000000      6.000000
 -0.125000  0.166667  0.000000      6.000000
  0.166667  0.041667  0.000000      6.000000
 -0.166667  0.208333  0.000000      6.000000
  0.208333  0.041667  0.000000      6.000000
 -0.208333  0.250000  0.000000      6.000000
  0.250000  0.041667  0.000000      6.000000
 -0.250000  0.291667  0.000000      6.000000
  0.291667  0.041667  0.000000      6.000000
 -0.291667  0.333333  0.000000      6.000000
  0.333333  0.041667  0.000000      6.000000
 -0.333333  0.375000  0.000000      6.000000
  0.375000  0.041667  0.000000      6.000000
 -0.375000  0.416667  0.000000      6.000000
  0.416667  0.041667  0.000000      6.000000
 -0.416667  0.458333  0.000000      6.000000
  0.458333  0.041667  0.000000      6.000000
 -0.458333  0.500000  0.000000      6.000000
  0.083333  0.083333  0.000000      6.000000
  0.125000  0.083333  0.000000      6.000000
 -0.125000  0.208333  0.000000      6.000000
  0.166667  0.083333  0.000000      6.000000
 -0.166667  0.250000  0.000000      6.000000
  0.208333  0.083333  0.000000      6.000000
 -0.208333  0.291667  0.000000      6.000000
  0.250000  0.083333  0.000000      6.000000
 -0.250000  0.333333  0.000000      6.000000
  0.291667  0.083333  0.000000      6.000000
 -0.291667  0.375000  0.000000      6.000000
  0.333333  0.083333  0.000000      6.000000
 -0.333333  0.416667  0.000000      6.000000
  0.375000  0.083333  0.000000      6.000000
 -0.375000  0.458333  0.000000      6.000000
  0.416667  0.083333  0.000000      6.000000
 -0.416667  0.500000  0.000000      6.000000
  0.458333  0.083333  0.000000      6.000000
  0.125000  0.125000  0.000000      6.000000
  0.166667  0.125000  0.000000      6.000000
 -0.166667  0.291667  0.000000      6.000000
  0.208333  0.125000  0.000000      6.000000
 -0.208333  0.333333  0.000000      6.000000
  0.250000  0.125000  0.000000      6.000000
 -0.250000  0.375000  0.000000      6.000000
  0.291667  0.125000  0.000000      6.000000
 -0.291667  0.416667  0.000000      6.000000
  0.333333  0.125000  0.000000      6.000000
 -0.333333  0.458333  0.000000      6.000000
  0.375000  0.125000  0.000000      6.000000
 -0.375000  0.500000  0.000000      6.000000
  0.416667  0.125000  0.000000      6.000000
 -0.416667 -0.458333  0.000000      6.000000
  0.166667  0.166667  0.000000      6.000000
  0.208333  0.166667  0.000000      6.000000
 -0.208333  0.375000  0.000000      6.000000
  0.250000  0.166667  0.000000      6.000000
 -0.250000  0.416667  0.000000      6.000000
  0.291667  0.166667  0.000000      6.000000
 -0.291667  0.458333  0.000000      6.000000
  0.333333  0.166667  0.000000      6.000000
 -0.333333  0.500000  0.000000      6.000000
  0.375000  0.166667  0.000000      6.000000
 -0.375000 -0.458333  0.000000      6.000000
  0.416667  0.166667  0.000000      6.000000
  0.208333  0.208333  0.000000      6.000000
  0.250000  0.208333  0.000000      6.000000
 -0.250000  0.458333  0.000000      6.000000
  0.291667  0.208333  0.000000      6.000000
 -0.291667  0.500000  0.000000      6.000000
  0.333333  0.208333  0.000000      6.000000
 -0.333333 -0.458333  0.000000      6.000000
  0.375000  0.208333  0.000000      6.000000
 -0.375000 -0.416667  0.000000      6.000000
  0.250000  0.250000  0.000000      6.000000
  0.291667  0.250000  0.000000      6.000000
 -0.291667 -0.458333  0.000000      6.000000
  0.333333  0.250000  0.000000      6.000000
 -0.333333 -0.416667  0.000000      6.000000
  0.375000  0.250000  0.000000      6.000000
  0.291667  0.291667  0.000000      6.000000
  0.333333  0.291667  0.000000      6.000000
 -0.333333 -0.375000  0.000000      6.000000
  0.333333  0.333333  0.000000      2.000000
 
 Following cartesian coordinates:
            Coordinates               Weight
  0.000000  0.000000  0.000000      1.000000
  0.006750  0.003897  0.000000      6.000000
  0.013499  0.007794  0.000000      6.000000
  0.020249  0.011691  0.000000      6.000000
  0.026998  0.015588  0.000000      6.000000
  0.033748  0.019484  0.000000      6.000000
  0.040498  0.023381  0.000000      6.000000
  0.047247  0.027278  0.000000      6.000000
  0.053997  0.031175  0.000000      6.000000
  0.060746  0.035072  0.000000      6.000000
  0.067496  0.038969  0.000000      6.000000
  0.074245  0.042866  0.000000      6.000000
  0.080995  0.046763  0.000000      3.000000
  0.006750  0.011691  0.000000      6.000000
  0.013499  0.015588  0.000000      6.000000
 -0.013499  0.015588  0.000000      6.000000
  0.020249  0.019484  0.000000      6.000000
 -0.020249  0.019484  0.000000      6.000000
  0.026998  0.023381  0.000000      6.000000
 -0.026998  0.023381  0.000000      6.000000
  0.033748  0.027278  0.000000      6.000000
 -0.033748  0.027278  0.000000      6.000000
  0.040498  0.031175  0.000000      6.000000
 -0.040498  0.031175  0.000000      6.000000
  0.047247  0.035072  0.000000      6.000000
 -0.047247  0.035072  0.000000      6.000000
  0.053997  0.038969  0.000000      6.000000
 -0.053997  0.038969  0.000000      6.000000
  0.060746  0.042866  0.000000      6.000000
 -0.060746  0.042866  0.000000      6.000000
  0.067496  0.046763  0.000000      6.000000
 -0.067496  0.046763  0.000000      6.000000
  0.074245  0.050659  0.000000      6.000000
 -0.074245  0.050659  0.000000      6.000000
  0.013499  0.023381  0.000000      6.000000
  0.020249  0.027278  0.000000      6.000000
 -0.020249  0.027278  0.000000      6.000000
  0.026998  0.031175  0.000000      6.000000
 -0.026998  0.031175  0.000000      6.000000
  0.033748  0.035072  0.000000      6.000000
 -0.033748  0.035072  0.000000      6.000000
  0.040498  0.038969  0.000000      6.000000
 -0.040498  0.038969  0.000000      6.000000
  0.047247  0.042866  0.000000      6.000000
 -0.047247  0.042866  0.000000      6.000000
  0.053997  0.046763  0.000000      6.000000
 -0.053997  0.046763  0.000000      6.000000
  0.060746  0.050659  0.000000      6.000000
 -0.060746  0.050659  0.000000      6.000000
  0.067496  0.054556  0.000000      6.000000
 -0.067496  0.054556  0.000000      6.000000
  0.074245  0.058453  0.000000      6.000000
  0.020249  0.035072  0.000000      6.000000
  0.026998  0.038969  0.000000      6.000000
 -0.026998  0.038969  0.000000      6.000000
  0.033748  0.042866  0.000000      6.000000
 -0.033748  0.042866  0.000000      6.000000
  0.040498  0.046763  0.000000      6.000000
 -0.040498  0.046763  0.000000      6.000000
  0.047247  0.050659  0.000000      6.000000
 -0.047247  0.050659  0.000000      6.000000
  0.053997  0.054556  0.000000      6.000000
 -0.053997  0.054556  0.000000      6.000000
  0.060746  0.058453  0.000000      6.000000
 -0.060746  0.058453  0.000000      6.000000
  0.067496  0.062350  0.000000      6.000000
 -0.067496 -0.124700  0.000000      6.000000
  0.026998  0.046763  0.000000      6.000000
  0.033748  0.050659  0.000000      6.000000
 -0.033748  0.050659  0.000000      6.000000
  0.040498  0.054556  0.000000      6.000000
 -0.040498  0.054556  0.000000      6.000000
  0.047247  0.058453  0.000000      6.000000
 -0.047247  0.058453  0.000000      6.000000
  0.053997  0.062350  0.000000      6.000000
 -0.053997  0.062350  0.000000      6.000000
  0.060746  0.066247  0.000000      6.000000
 -0.060746 -0.120803  0.000000      6.000000
  0.067496  0.070144  0.000000      6.000000
  0.033748  0.058453  0.000000      6.000000
  0.040498  0.062350  0.000000      6.000000
 -0.040498  0.062350  0.000000      6.000000
  0.047247  0.066247  0.000000      6.000000
 -0.047247  0.066247  0.000000      6.000000
  0.053997  0.070144  0.000000      6.000000
 -0.053997 -0.116906  0.000000      6.000000
  0.060746  0.074041  0.000000      6.000000
 -0.060746 -0.113009  0.000000      6.000000
  0.040498  0.070144  0.000000      6.000000
  0.047247  0.074041  0.000000      6.000000
 -0.047247 -0.113009  0.000000      6.000000
  0.053997  0.077938  0.000000      6.000000
 -0.053997 -0.109113  0.000000      6.000000
  0.060746  0.081834  0.000000      6.000000
  0.047247  0.081834  0.000000      6.000000
  0.053997  0.085731  0.000000      6.000000
 -0.053997 -0.101319  0.000000      6.000000
  0.053997  0.093525  0.000000      2.000000
 


--------------------------------------------------------------------------------------------------------




 Dimension of arrays:
   k-points           NKPTS =     98   k-points in BZ     NKDIM =     98   number of bands    NBANDS=     40
   number of dos      NEDOS =    301   number of ions     NIONS =      8
   non local maximal  LDIM  =      6   non local SUM 2l+1 LMDIM =     18
   total plane-waves  NPLWV = 322560
   max r-space proj   IRMAX =      1   max aug-charges    IRDMAX=  19566
   dimension x,y,z NGX =    48 NGY =   48 NGZ =  140
   dimension x,y,z NGXF=    96 NGYF=   96 NGZF=  280
   support grid    NGXF=    96 NGYF=   96 NGZF=  280
   ions per type =               2   6
   NGX,Y,Z   is equivalent  to a cutoff of  12.93, 12.93, 12.95 a.u.
   NGXF,Y,Z  is equivalent  to a cutoff of  25.85, 25.85, 25.90 a.u.

 SYSTEM =  unknown system                          
 POSCAR =  Fe Cl                                   

 Startparameter for this run:
   NWRITE =      2    write-flag & timer
   PREC   = accura    normal or accurate (medium, high low for compatibility)
   ISTART =      0    job   : 0-new  1-cont  2-samecut
   ICHARG =      2    charge: 1-file 2-atom 10-const
   ISPIN  =      2    spin polarized calculation?
   LNONCOLLINEAR =      F non collinear calculations
   LSORBIT =      F    spin-orbit coupling
   INIWAV =      1    electr: 0-lowe 1-rand  2-diag
   LASPH  =      F    aspherical Exc in radial PAW
 Electronic Relaxation 1
   ENCUT  =  520.0 eV  38.22 Ry    6.18 a.u.  11.48 11.48 33.42*2*pi/ulx,y,z
   ENINI  =  520.0     initial cutoff
   ENAUG  =  511.4 eV  augmentation charge cutoff
   NELM   =     60;   NELMIN=  2; NELMDL=  0     # of ELM steps 
   EDIFF  = 0.1E-04   stopping-criterion for ELM
   LREAL  =      F    real-space projection
   NLSPLINE    = F    spline interpolate recip. space projectors
   LCOMPAT=      F    compatible to vasp.4.4
   GGA_COMPAT  = T    GGA compatible to vasp.4.4-vasp.4.6
   LMAXPAW     = -100 max onsite density
   LMAXMIX     =    2 max onsite mixed and CHGCAR
   VOSKOWN=      0    Vosko Wilk Nusair interpolation
   ROPT   =    0.00000   0.00000
 Ionic relaxation
   EDIFFG = 0.1E-03   stopping-criterion for IOM
   NSW    =    300    number of steps for IOM
   NBLOCK =      1;   KBLOCK =    300    inner block; outer block 
   IBRION =      2    ionic relax: 0-MD 1-quasi-New 2-CG
   NFREE  =      1    steps in history (QN), initial steepest desc. (CG)
   ISIF   =      3    stress and relaxation
   IWAVPR =     11    prediction:  0-non 1-charg 2-wave 3-comb
   ISYM   =      2    0-nonsym 1-usesym 2-fastsym
   LCORR  =      T    Harris-Foulkes like correction to forces

   POTIM  = 0.5000    time-step for ionic-motion
   TEIN   =    0.0    initial temperature
   TEBEG  =    0.0;   TEEND  =   0.0 temperature during run
   SMASS  =  -3.00    Nose mass-parameter (am)
   estimated Nose-frequenzy (Omega)   =  0.10E-29 period in steps = 0.13E+47 mass=  -0.871E-27a.u.
   SCALEE = 1.0000    scale energy and forces
   NPACO  =    256;   APACO  = 10.0  distance and # of slots for P.C.
   PSTRESS=    0.0 pullay stress

  Mass of Ions in am
   POMASS =  55.85 35.45
  Ionic Valenz
   ZVAL   =   8.00  7.00
  Atomic Wigner-Seitz radii
   RWIGS  =  -1.00 -1.00
  virtual crystal weights 
   VCA    =   1.00  1.00
   NELECT =      58.0000    total number of electrons
   NUPDOWN=      -1.0000    fix difference up-down

 DOS related values:
   EMIN   =  10.00;   EMAX   =-10.00  energy-range for DOS
   EFERMI =   0.00;   METHOD = LEGACY      
   ISMEAR =     0;   SIGMA  =   0.05  broadening in eV -4-tet -1-fermi 0-gaus

 Electronic relaxation 2 (details)
   IALGO  =     38    algorithm
   LDIAG  =      T    sub-space diagonalisation (order eigenvalues)
   LSUBROT=      F    optimize rotation matrix (better conditioning)
   TURBO    =      0    0=normal 1=particle mesh
   IRESTART =      0    0=no restart 2=restart with 2 vectors
   NREBOOT  =      0    no. of reboots
   NMIN     =      0    reboot dimension
   EREF     =   0.00    reference energy to select bands
   IMIX   =      4    mixing-type and parameters
     AMIX     =   0.40;   BMIX     =  1.00
     AMIX_MAG =   1.60;   BMIX_MAG =  1.00
     AMIN     =   0.10
     WC   =   100.;   INIMIX=   1;  MIXPRE=   1;  MAXMIX= -45

 Intra band minimization:
   WEIMIN = 0.0010     energy-eigenvalue tresh-hold
   EBREAK =  0.63E-07  absolut break condition
   DEPER  =   0.30     relativ break condition  

   TIME   =   0.40     timestep for ELM

  volume/ion in A,a.u.               =      74.15       500.41
  Fermi-wavevector in a.u.,A,eV,Ry     =   0.754184  1.425200  7.738898  0.568793
  Thomas-Fermi vector in A             =   1.851793
 
 Write flags
   LWAVE        =      F    write WAVECAR
   LDOWNSAMPLE  =      F    k-point downsampling of WAVECAR
   LCHARG       =      F    write CHGCAR
   LVTOT        =      F    write LOCPOT, total local potential
   LVHAR        =      F    write LOCPOT, Hartree potential only
   LELF         =      F    write electronic localiz. function (ELF)
   LORBIT       =      0    0 simple, 1 ext, 2 COOP (PROOUT), +10 PAW based schemes


 Dipole corrections
   LMONO  =      F    monopole corrections only (constant potential shift)
   LDIPOL =      F    correct potential (dipole corrections)
   IDIPOL =      0    1-x, 2-y, 3-z, 4-all directions 
   EPSILON=  1.0000000 bulk dielectric constant

 LDA+U is selected, type is set to LDAUTYPE =  2
   angular momentum for each species LDAUL =     2   -1
   U (eV)           for each species LDAUU =   4.5  0.0
   J (eV)           for each species LDAUJ =   0.9  0.0
 Exchange correlation treatment:
   GGA     =    --    GGA type
   LEXCH   =     8    internal setting for exchange type
   LIBXC   =     F    Libxc                    
   VOSKOWN =     0    Vosko Wilk Nusair interpolation
   LHFCALC =     F    Hartree Fock is set to
   LHFONE  =     F    Hartree Fock one center treatment
   AEXX    =    0.0000 exact exchange contribution

 Linear response parameters
   LEPSILON=     F    determine dielectric tensor
   LRPA    =     F    only Hartree local field effects (RPA)
   LNABLA  =     F    use nabla operator in PAW spheres
   LVEL    =     F    velocity operator in full k-point grid
   CSHIFT  =0.1000    complex shift for real part using Kramers Kronig
   OMEGAMAX=  -1.0    maximum frequency
   DEG_THRESHOLD= 0.2000000E-02 threshold for treating states as degnerate
   RTIME   =   -0.100 relaxation time in fs
  (WPLASMAI=    0.000 imaginary part of plasma frequency in eV, 0.658/RTIME)
   DFIELD  = 0.0000000 0.0000000 0.0000000 field for delta impulse in time
 
  Optional k-point grid parameters
   LKPOINTS_OPT  =     F    use optional k-point grid
   KPOINTS_OPT_MODE=     1    mode for optional k-point grid
 
 Orbital magnetization related:
   ORBITALMAG=     F  switch on orbital magnetization
   LCHIMAG   =     F  perturbation theory with respect to B field
   DQ        =  0.001000  dq finite difference perturbation B field
   LLRAUG    =     F  two centre corrections for induced B field
   LBONE     =     F  B-component reconstruction in AE one-centre
   LVGVCALC  =     T  calculate vGv susceptibility
   LVGVAPPL  =     F  apply vGv susceptibility instead of pGv for G=0

 Random number generation:
   RANDOM_GENERATOR = DEFAULT
   PCG_SEED         = not used


--------------------------------------------------------------------------------------------------------


 conjugate gradient relaxation of ions
 charge density and potential will be updated during run
 spin polarized calculation
 Variant of blocked Davidson
 Davidson routine will perform the subspace rotation
 perform sub-space diagonalisation
    after iterative eigenvector-optimisation
 modified Broyden-mixing scheme, WC =      100.0
 initial mixing is a Kerker type mixing with AMIX =  0.4000 and BMIX =      1.0000
 Hartree-type preconditioning will be used
 using additional bands            11
 reciprocal scheme for non local part
 use partial core corrections
 calculate Harris-corrections to forces 
   (improved forces if not selfconsistent)
 use gradient corrections 
 use of overlap-Matrix (Vanderbilt PP)
 Gauss-broadening in eV      SIGMA  =   0.05


--------------------------------------------------------------------------------------------------------


  energy-cutoff  :      520.00
  volume of cell :      593.23
      direct lattice vectors                 reciprocal lattice vectors
     6.173217025  0.000000000  0.000000000     0.161990093  0.093525081 -0.000000000
    -3.086608508  5.346159470  0.000000000     0.000000000  0.187050163  0.000000000
     0.000000000  0.000000000 17.974950413     0.000000000 -0.000000000  0.055632977

  length of vectors
     6.173217025  6.173214168 17.974950413     0.187050076  0.187050163  0.055632977


 
 k-points in units of 2pi/SCALE and weight: Automatic mesh                          
   0.00000000  0.00000000  0.00000000       0.002
   0.00674959  0.00389688  0.00000000       0.010
   0.01349917  0.00779376  0.00000000       0.010
   0.02024876  0.01169064  0.00000000       0.010
   0.02699835  0.01558751  0.00000000       0.010
   0.03374794  0.01948439  0.00000000       0.010
   0.04049752  0.02338127  0.00000000       0.010
   0.04724711  0.02727815  0.00000000       0.010
   0.05399670  0.03117503  0.00000000       0.010
   0.06074628  0.03507191  0.00000000       0.010
   0.06749587  0.03896878  0.00000000       0.010
   0.07424546  0.04286566  0.00000000       0.010
   0.08099505  0.04676254  0.00000000       0.005
   0.00674959  0.01169064  0.00000000       0.010
   0.01349917  0.01558751  0.00000000       0.010
  -0.01349917  0.01558751  0.00000000       0.010
   0.02024876  0.01948439  0.00000000       0.010
  -0.02024876  0.01948439  0.00000000       0.010
   0.02699835  0.02338127  0.00000000       0.010
  -0.02699835  0.02338127  0.00000000       0.010
   0.03374794  0.02727815  0.00000000       0.010
  -0.03374794  0.02727815  0.00000000       0.010
   0.04049752  0.03117503  0.00000000       0.010
  -0.04049752  0.03117503  0.00000000       0.010
   0.04724711  0.03507191  0.00000000       0.010
  -0.04724711  0.03507191  0.00000000       0.010
   0.05399670  0.03896878  0.00000000       0.010
  -0.05399670  0.03896878  0.00000000       0.010
   0.06074628  0.04286566  0.00000000       0.010
  -0.06074628  0.04286566  0.00000000       0.010
   0.06749587  0.04676254  0.00000000       0.010
  -0.06749587  0.04676254  0.00000000       0.010
   0.07424546  0.05065942  0.00000000       0.010
  -0.07424546  0.05065942  0.00000000       0.010
   0.01349917  0.02338127  0.00000000       0.010
   0.02024876  0.02727815  0.00000000       0.010
  -0.02024876  0.02727815  0.00000000       0.010
   0.02699835  0.03117503  0.00000000       0.010
  -0.02699835  0.03117503  0.00000000       0.010
   0.03374794  0.03507191  0.00000000       0.010
  -0.03374794  0.03507191  0.00000000       0.010
   0.04049752  0.03896878  0.00000000       0.010
  -0.04049752  0.03896878  0.00000000       0.010
   0.04724711  0.04286566  0.00000000       0.010
  -0.04724711  0.04286566  0.00000000       0.010
   0.05399670  0.04676254  0.00000000       0.010
  -0.05399670  0.04676254  0.00000000       0.010
   0.06074628  0.05065942  0.00000000       0.010
  -0.06074628  0.05065942  0.00000000       0.010
   0.06749587  0.05455630  0.00000000       0.010
  -0.06749587  0.05455630  0.00000000       0.010
   0.07424546  0.05845318  0.00000000       0.010
   0.02024876  0.03507191  0.00000000       0.010
   0.02699835  0.03896878  0.00000000       0.010
  -0.02699835  0.03896878  0.00000000       0.010
   0.03374794  0.04286566  0.00000000       0.010
  -0.03374794  0.04286566  0.00000000       0.010
   0.04049752  0.04676254  0.00000000       0.010
  -0.04049752  0.04676254  0.00000000       0.010
   0.04724711  0.05065942  0.00000000       0.010
  -0.04724711  0.05065942  0.00000000       0.010
   0.05399670  0.05455630  0.00000000       0.010
  -0.05399670  0.05455630  0.00000000       0.010
   0.06074628  0.05845318  0.00000000       0.010
  -0.06074628  0.05845318  0.00000000       0.010
   0.06749587  0.06235005  0.00000000       0.010
  -0.06749587 -0.12470011  0.00000000       0.010
   0.02699835  0.04676254  0.00000000       0.010
   0.03374794  0.05065942  0.00000000       0.010
  -0.03374794  0.05065942  0.00000000       0.010
   0.04049752  0.05455630  0.00000000       0.010
  -0.04049752  0.05455630  0.00000000       0.010
   0.04724711  0.05845318  0.00000000       0.010
  -0.04724711  0.05845318  0.00000000       0.010
   0.05399670  0.06235005  0.00000000       0.010
  -0.05399670  0.06235005  0.00000000       0.010
   0.06074628  0.06624693  0.00000000       0.010
  -0.06074628 -0.12080323  0.00000000       0.010
   0.06749587  0.07014381  0.00000000       0.010
   0.03374794  0.05845318  0.00000000       0.010
   0.04049752  0.06235005  0.00000000       0.010
  -0.04049752  0.06235005  0.00000000       0.010
   0.04724711  0.06624693  0.00000000       0.010
  -0.04724711  0.06624693  0.00000000       0.010
   0.05399670  0.07014381  0.00000000       0.010
  -0.05399670 -0.11690635  0.00000000       0.010
   0.06074628  0.07404069  0.00000000       0.010
  -0.06074628 -0.11300947  0.00000000       0.010
   0.04049752  0.07014381  0.00000000       0.010
   0.04724711  0.07404069  0.00000000       0.010
  -0.04724711 -0.11300947  0.00000000       0.010
   0.05399670  0.07793757  0.00000000       0.010
  -0.05399670 -0.10911259  0.00000000       0.010
   0.06074628  0.08183445  0.00000000       0.010
   0.04724711  0.08183445  0.00000000       0.010
   0.05399670  0.08573132  0.00000000       0.010
  -0.05399670 -0.10131884  0.00000000       0.010
   0.05399670  0.09352508  0.00000000       0.003
 
 k-points in reciprocal lattice and weights: Automatic mesh                          
   0.00000000  0.00000000  0.00000000       0.002
   0.04166667  0.00000000  0.00000000       0.010
   0.08333333  0.00000000  0.00000000       0.010
   0.12500000  0.00000000  0.00000000       0.010
   0.16666667  0.00000000  0.00000000       0.010
   0.20833333  0.00000000  0.00000000       0.010
   0.25000000  0.00000000  0.00000000       0.010
   0.29166667  0.00000000  0.00000000       0.010
   0.33333333  0.00000000  0.00000000       0.010
   0.37500000  0.00000000  0.00000000       0.010
   0.41666667  0.00000000  0.00000000       0.010
   0.45833333  0.00000000  0.00000000       0.010
   0.50000000  0.00000000  0.00000000       0.005
   0.04166667  0.04166667  0.00000000       0.010
   0.08333333  0.04166667  0.00000000       0.010
  -0.08333333  0.12500000  0.00000000       0.010
   0.12500000  0.04166667  0.00000000       0.010
  -0.12500000  0.16666667  0.00000000       0.010
   0.16666667  0.04166667  0.00000000       0.010
  -0.16666667  0.20833333  0.00000000       0.010
   0.20833333  0.04166667  0.00000000       0.010
  -0.20833333  0.25000000  0.00000000       0.010
   0.25000000  0.04166667  0.00000000       0.010
  -0.25000000  0.29166667  0.00000000       0.010
   0.29166667  0.04166667  0.00000000       0.010
  -0.29166667  0.33333333  0.00000000       0.010
   0.33333333  0.04166667  0.00000000       0.010
  -0.33333333  0.37500000  0.00000000       0.010
   0.37500000  0.04166667  0.00000000       0.010
  -0.37500000  0.41666667  0.00000000       0.010
   0.41666667  0.04166667  0.00000000       0.010
  -0.41666667  0.45833333  0.00000000       0.010
   0.45833333  0.04166667  0.00000000       0.010
  -0.45833333  0.50000000  0.00000000       0.010
   0.08333333  0.08333333  0.00000000       0.010
   0.12500000  0.08333333  0.00000000       0.010
  -0.12500000  0.20833333  0.00000000       0.010
   0.16666667  0.08333333  0.00000000       0.010
  -0.16666667  0.25000000  0.00000000       0.010
   0.20833333  0.08333333  0.00000000       0.010
  -0.20833333  0.29166667  0.00000000       0.010
   0.25000000  0.08333333  0.00000000       0.010
  -0.25000000  0.33333333  0.00000000       0.010
   0.29166667  0.08333333  0.00000000       0.010
  -0.29166667  0.37500000  0.00000000       0.010
   0.33333333  0.08333333  0.00000000       0.010
  -0.33333333  0.41666667  0.00000000       0.010
   0.37500000  0.08333333  0.00000000       0.010
  -0.37500000  0.45833333  0.00000000       0.010
   0.41666667  0.08333333  0.00000000       0.010
  -0.41666667  0.50000000  0.00000000       0.010
   0.45833333  0.08333333  0.00000000       0.010
   0.12500000  0.12500000  0.00000000       0.010
   0.16666667  0.12500000  0.00000000       0.010
  -0.16666667  0.29166667  0.00000000       0.010
   0.20833333  0.12500000  0.00000000       0.010
  -0.20833333  0.33333333  0.00000000       0.010
   0.25000000  0.12500000  0.00000000       0.010
  -0.25000000  0.37500000  0.00000000       0.010
   0.29166667  0.12500000  0.00000000       0.010
  -0.29166667  0.41666667  0.00000000       0.010
   0.33333333  0.12500000  0.00000000       0.010
  -0.33333333  0.45833333  0.00000000       0.010
   0.37500000  0.12500000  0.00000000       0.010
  -0.37500000  0.50000000  0.00000000       0.010
   0.41666667  0.12500000  0.00000000       0.010
  -0.41666667 -0.45833333  0.00000000       0.010
   0.16666667  0.16666667  0.00000000       0.010
   0.20833333  0.16666667  0.00000000       0.010
  -0.20833333  0.37500000  0.00000000       0.010
   0.25000000  0.16666667  0.00000000       0.010
  -0.25000000  0.41666667  0.00000000       0.010
   0.29166667  0.16666667  0.00000000       0.010
  -0.29166667  0.45833333  0.00000000       0.010
   0.33333333  0.16666667  0.00000000       0.010
  -0.33333333  0.50000000  0.00000000       0.010
   0.37500000  0.16666667  0.00000000       0.010
  -0.37500000 -0.45833333  0.00000000       0.010
   0.41666667  0.16666667  0.00000000       0.010
   0.20833333  0.20833333  0.00000000       0.010
   0.25000000  0.20833333  0.00000000       0.010
  -0.25000000  0.45833333  0.00000000       0.010
   0.29166667  0.20833333  0.00000000       0.010
  -0.29166667  0.50000000  0.00000000       0.010
   0.33333333  0.20833333  0.00000000       0.010
  -0.33333333 -0.45833333  0.00000000       0.010
   0.37500000  0.20833333  0.00000000       0.010
  -0.37500000 -0.41666667  0.00000000       0.010
   0.25000000  0.25000000  0.00000000       0.010
   0.29166667  0.25000000  0.00000000       0.010
  -0.29166667 -0.45833333  0.00000000       0.010
   0.33333333  0.25000000  0.00000000       0.010
  -0.33333333 -0.41666667  0.00000000       0.010
   0.37500000  0.25000000  0.00000000       0.010
   0.29166667  0.29166667  0.00000000       0.010
   0.33333333  0.29166667  0.00000000       0.010
  -0.33333333 -0.37500000  0.00000000       0.010
   0.33333333  0.33333333  0.00000000       0.003
 
 position of ions in fractional coordinates (direct lattice) 
   0.00000091  0.99999936  0.36199604
   0.66666586  0.33333388  0.36346940
   0.97185969  0.66649152  0.43988224
   0.33350824  0.30536853  0.43988132
   0.69462953  0.02814320  0.43988174
   0.97176705  0.30494591  0.28538700
   0.69505326  0.66682528  0.28538790
   0.33317549  0.02823232  0.28538562
 
 position of ions in cartesian coordinates  (Angst):
  -3.08660089  5.34615606  6.50686080
   3.08660188  1.78205606  6.53334444
   3.94230239  3.56316993  7.90686144
   1.11626566  1.63254886  7.90684500
   4.20123180  0.15045802  7.90685246
   5.05768027  1.63028945  5.12981711
   2.23248606  3.56495427  5.12983333
   1.96962250  0.15093448  5.12979232
 


--------------------------------------------------------------------------------------------------------


 k-point   1 :   0.0000 0.0000 0.0000  plane waves:   16051
 k-point   2 :   0.0417 0.0000 0.0000  plane waves:   16007
 k-point   3 :   0.0833 0.0000 0.0000  plane waves:   16000
 k-point   4 :   0.1250 0.0000 0.0000  plane waves:   16012
 k-point   5 :   0.1667 0.0000 0.0000  plane waves:   16014
 k-point   6 :   0.2083 0.0000 0.0000  plane waves:   15998
 k-point   7 :   0.2500 0.0000 0.0000  plane waves:   16006
 k-point   8 :   0.2917 0.0000 0.0000  plane waves:   15996
 k-point   9 :   0.3333 0.0000 0.0000  plane waves:   15976
 k-point  10 :   0.3750 0.0000 0.0000  plane waves:   15968
 k-point  11 :   0.4167 0.0000 0.0000  plane waves:   15948
 k-point  12 :   0.4583 0.0000 0.0000  plane waves:   15946
 k-point  13 :   0.5000 0.0000 0.0000  plane waves:   15940
 k-point  14 :   0.0417 0.0417 0.0000  plane waves:   16009
 k-point  15 :   0.0833 0.0417 0.0000  plane waves:   16017
 k-point  16 :  -0.0833 0.1250 0.0000  plane waves:   16017
 k-point  17 :   0.1250 0.0417 0.0000  plane waves:   16008
 k-point  18 :  -0.1250 0.1667 0.0000  plane waves:   16008
 k-point  19 :   0.1667 0.0417 0.0000  plane waves:   16008
 k-point  20 :  -0.1667 0.2083 0.0000  plane waves:   16008
 k-point  21 :   0.2083 0.0417 0.0000  plane waves:   16013
 k-point  22 :  -0.2083 0.2500 0.0000  plane waves:   16013
 k-point  23 :   0.2500 0.0417 0.0000  plane waves:   15995
 k-point  24 :  -0.2500 0.2917 0.0000  plane waves:   15995
 k-point  25 :   0.2917 0.0417 0.0000  plane waves:   15999
 k-point  26 :  -0.2917 0.3333 0.0000  plane waves:   15999
 k-point  27 :   0.3333 0.0417 0.0000  plane waves:   15981
 k-point  28 :  -0.3333 0.3750 0.0000  plane waves:   15981
 k-point  29 :   0.3750 0.0417 0.0000  plane waves:   15972
 k-point  30 :  -0.3750 0.4167 0.0000  plane waves:   15972
 k-point  31 :   0.4167 0.0417 0.0000  plane waves:   15958
 k-point  32 :  -0.4167 0.4583 0.0000  plane waves:   15958
 k-point  33 :   0.4583 0.0417 0.0000  plane waves:   15951
 k-point  34 :  -0.4583 0.5000 0.0000  plane waves:   15951
 k-point  35 :   0.0833 0.0833 0.0000  plane waves:   15999
 k-point  36 :   0.1250 0.0833 0.0000  plane waves:   16025
 k-point  37 :  -0.1250 0.2083 0.0000  plane waves:   16025
 k-point  38 :   0.1667 0.0833 0.0000  plane waves:   16007
 k-point  39 :  -0.1667 0.2500 0.0000  plane waves:   16007
 k-point  40 :   0.2083 0.0833 0.0000  plane waves:   15991
 k-point  41 :  -0.2083 0.2917 0.0000  plane waves:   15991
 k-point  42 :   0.2500 0.0833 0.0000  plane waves:   15991
 k-point  43 :  -0.2500 0.3333 0.0000  plane waves:   15991
 k-point  44 :   0.2917 0.0833 0.0000  plane waves:   15976
 k-point  45 :  -0.2917 0.3750 0.0000  plane waves:   15976
 k-point  46 :   0.3333 0.0833 0.0000  plane waves:   15981
 k-point  47 :  -0.3333 0.4167 0.0000  plane waves:   15981
 k-point  48 :   0.3750 0.0833 0.0000  plane waves:   15956
 k-point  49 :  -0.3750 0.4583 0.0000  plane waves:   15956
 k-point  50 :   0.4167 0.0833 0.0000  plane waves:   15962
 k-point  51 :  -0.4167 0.5000 0.0000  plane waves:   15962
 k-point  52 :   0.4583 0.0833 0.0000  plane waves:   15960
 k-point  53 :   0.1250 0.1250 0.0000  plane waves:   16013
 k-point  54 :   0.1667 0.1250 0.0000  plane waves:   15993
 k-point  55 :  -0.1667 0.2917 0.0000  plane waves:   15993
 k-point  56 :   0.2083 0.1250 0.0000  plane waves:   15991
 k-point  57 :  -0.2083 0.3333 0.0000  plane waves:   15991
 k-point  58 :   0.2500 0.1250 0.0000  plane waves:   15979
 k-point  59 :  -0.2500 0.3750 0.0000  plane waves:   15979
 k-point  60 :   0.2917 0.1250 0.0000  plane waves:   15965
 k-point  61 :  -0.2917 0.4167 0.0000  plane waves:   15965
 k-point  62 :   0.3333 0.1250 0.0000  plane waves:   15964
 k-point  63 :  -0.3333 0.4583 0.0000  plane waves:   15964
 k-point  64 :   0.3750 0.1250 0.0000  plane waves:   15962
 k-point  65 :  -0.3750 0.5000 0.0000  plane waves:   15962
 k-point  66 :   0.4167 0.1250 0.0000  plane waves:   15957
 k-point  67 :  -0.4167-0.4583 0.0000  plane waves:   15957
 k-point  68 :   0.1667 0.1667 0.0000  plane waves:   15997
 k-point  69 :   0.2083 0.1667 0.0000  plane waves:   15986
 k-point  70 :  -0.2083 0.3750 0.0000  plane waves:   15986
 k-point  71 :   0.2500 0.1667 0.0000  plane waves:   15998
 k-point  72 :  -0.2500 0.4167 0.0000  plane waves:   15998
 k-point  73 :   0.2917 0.1667 0.0000  plane waves:   15969
 k-point  74 :  -0.2917 0.4583 0.0000  plane waves:   15969
 k-point  75 :   0.3333 0.1667 0.0000  plane waves:   15944
 k-point  76 :  -0.3333 0.5000 0.0000  plane waves:   15944
 k-point  77 :   0.3750 0.1667 0.0000  plane waves:   15957
 k-point  78 :  -0.3750-0.4583 0.0000  plane waves:   15957
 k-point  79 :   0.4167 0.1667 0.0000  plane waves:   15932
 k-point  80 :   0.2083 0.2083 0.0000  plane waves:   15991
 k-point  81 :   0.2500 0.2083 0.0000  plane waves:   15967
 k-point  82 :  -0.2500 0.4583 0.0000  plane waves:   15967
 k-point  83 :   0.2917 0.2083 0.0000  plane waves:   15946
 k-point  84 :  -0.2917 0.5000 0.0000  plane waves:   15946
 k-point  85 :   0.3333 0.2083 0.0000  plane waves:   15935
 k-point  86 :  -0.3333-0.4583 0.0000  plane waves:   15935
 k-point  87 :   0.3750 0.2083 0.0000  plane waves:   15953
 k-point  88 :  -0.3750-0.4167 0.0000  plane waves:   15953
 k-point  89 :   0.2500 0.2500 0.0000  plane waves:   15955
 k-point  90 :   0.2917 0.2500 0.0000  plane waves:   15917
 k-point  91 :  -0.2917-0.4583 0.0000  plane waves:   15917
 k-point  92 :   0.3333 0.2500 0.0000  plane waves:   15927
 k-point  93 :  -0.3333-0.4167 0.0000  plane waves:   15927
 k-point  94 :   0.3750 0.2500 0.0000  plane waves:   15942
 k-point  95 :   0.2917 0.2917 0.0000  plane waves:   15922
 k-point  96 :   0.3333 0.2917 0.0000  plane waves:   15926
 k-point  97 :  -0.3333-0.3750 0.0000  plane waves:   15926
 k-point  98 :   0.3333 0.3333 0.0000  plane waves:   15912

 maximum and minimum number of plane-waves per node :     16051    15912

 maximum number of plane-waves:     16051
 maximum index in each direction: 
   IXMAX=   11   IYMAX=   11   IZMAX=   33
   IXMIN=  -11   IYMIN=  -11   IZMIN=  -33


 serial   3D FFT for wavefunctions
 parallel 3D FFT for charge:
    minimum data exchange during FFTs selected (reduces bandwidth)


 total amount of memory used by VASP MPI-rank0  2831187. kBytes
=======================================================================

   base      :      30000. kBytes
   nonl-proj :     455077. kBytes
   fftplans  :      88392. kBytes
   grid      :     233496. kBytes
   one-center:        248. kBytes
   wavefun   :    2023974. kBytes
 
     INWAV:  cpu time      0.0001: real time      0.0002
 Broyden mixing: mesh for mixing (old mesh)
   NGX = 23   NGY = 23   NGZ = 67
  (NGX  = 96   NGY  = 96   NGZ  =280)
  gives a total of  35443 points

 initial charge density was supplied:
 charge density of overlapping atoms calculated
 number of electron      58.0000000 magnetization      12.0000000
 keeping initial charge density in first step


--------------------------------------------------------------------------------------------------------


 Maximum index for augmentation-charges         18782 (set IRDMAX)


--------------------------------------------------------------------------------------------------------


 First call to EWALD:  gamma=   0.211
 Maximum number of real-space cells 4x 4x 2
 Maximum number of reciprocal cells 2x 2x 5

    FEWALD:  cpu time      0.0008: real time      0.0008


--------------------------------------- Ionic step        1  -------------------------------------------




--------------------------------------- Iteration      1(   1)  ---------------------------------------


    POTLOK:  cpu time      0.0429: real time      0.0454
    SETDIJ:  cpu time      0.0298: real time      0.0299
     EDDAV:  cpu time      6.6897: real time      6.7027
       DOS:  cpu time      0.0048: real time      0.0048
    --------------------------------------------
      LOOP:  cpu time      6.7672: real time      6.7828

 eigenvalue-minimisations  : 15680
 total energy-change (2. order) : 0.5462590E+03  (-0.1989039E+04)
 number of electron      58.0000000 magnetization      12.0000000
 augmentation part       58.0000000 magnetization      12.0000000

 Free energy of the ion-electron system (eV)
  ---------------------------------------------------
  alpha Z        PSCENC =        34.59238289
  Ewald energy   TEWEN  =      5188.14700503
  -Hartree energ DENC   =     -8504.54391050
  -exchange      EXHF   =         0.00000000
  -V(xc)+E(xc)   XCENC  =       134.48172287
  PAW double counting   =      3052.26160663    -3045.71919405
  entropy T*S    EENTRO =        -0.00551782
  eigenvalues    EBANDS =        40.07817888
  atomic energy  EATOM  =      3646.96668234
  Solvation  Ediel_sol  =         0.00000000
  ---------------------------------------------------
  free energy    TOTEN  =       546.25895625 eV

  energy without entropy =      546.26447407  energy(sigma->0) =      546.26171516


--------------------------------------------------------------------------------------------------------




--------------------------------------- Iteration      1(   2)  ---------------------------------------


     EDDAV:  cpu time      8.3494: real time      8.3653
       DOS:  cpu time      0.0042: real time      0.0042
    --------------------------------------------
      LOOP:  cpu time      8.3536: real time      8.3695

 eigenvalue-minimisations  : 21544
 total energy-change (2. order) :-0.4690252E+03  (-0.4502515E+03)
 number of electron      58.0000000 magnetization      12.0000000
 augmentation part       58.0000000 magnetization      12.0000000

 Free energy of the ion-electron system (eV)
  ---------------------------------------------------
  alpha Z        PSCENC =        34.59238289
  Ewald energy   TEWEN  =      5188.14700503
  -Hartree energ DENC   =     -8504.54391050
  -exchange      EXHF   =         0.00000000
  -V(xc)+E(xc)   XCENC  =       134.48172287
  PAW double counting   =      3052.26160663    -3045.71919405
  entropy T*S    EENTRO =        -0.00014267
  eigenvalues    EBANDS =      -428.95236243
  atomic energy  EATOM  =      3646.96668234
  Solvation  Ediel_sol  =         0.00000000
  ---------------------------------------------------
  free energy    TOTEN  =        77.23379010 eV

  energy without entropy =       77.23393277  energy(sigma->0) =       77.23386144


--------------------------------------------------------------------------------------------------------




--------------------------------------- Iteration      1(   3)  ---------------------------------------


     EDDAV:  cpu time      7.5000: real time      7.5147
       DOS:  cpu time      0.0025: real time      0.0025
    --------------------------------------------
      LOOP:  cpu time      7.5025: real time      7.5171

 eigenvalue-minimisations  : 18920
 total energy-change (2. order) :-0.1128890E+03  (-0.1120796E+03)
 number of electron      58.0000000 magnetization      12.0000000
 augmentation part       58.0000000 magnetization      12.0000000

 Free energy of the ion-electron system (eV)
  ---------------------------------------------------
  alpha Z        PSCENC =        34.59238289
  Ewald energy   TEWEN  =      5188.14700503
  -Hartree energ DENC   =     -8504.54391050
  -exchange      EXHF   =         0.00000000
  -V(xc)+E(xc)   XCENC  =       134.48172287
  PAW double counting   =      3052.26160663    -3045.71919405
  entropy T*S    EENTRO =        -0.00000000
  eigenvalues    EBANDS =      -541.84155491
  atomic energy  EATOM  =      3646.96668234
  Solvation  Ediel_sol  =         0.00000000
  ---------------------------------------------------
  free energy    TOTEN  =       -35.65525971 eV

  energy without entropy =      -35.65525971  energy(sigma->0) =      -35.65525971


--------------------------------------------------------------------------------------------------------




--------------------------------------- Iteration      1(   4)  ---------------------------------------


     EDDAV:  cpu time      8.0906: real time      8.1056
       DOS:  cpu time      0.0025: real time      0.0025
    --------------------------------------------
      LOOP:  cpu time      8.0932: real time      8.1082

 eigenvalue-minimisations  : 20880
 total energy-change (2. order) :-0.4928294E+01  (-0.4915679E+01)
 number of electron      58.0000000 magnetization      12.0000000
 augmentation part       58.0000000 magnetization      12.0000000

 Free energy of the ion-electron system (eV)
  ---------------------------------------------------
  alpha Z        PSCENC =        34.59238289
  Ewald energy   TEWEN  =      5188.14700503
  -Hartree energ DENC   =     -8504.54391050
  -exchange      EXHF   =         0.00000000
  -V(xc)+E(xc)   XCENC  =       134.48172287
  PAW double counting   =      3052.26160663    -3045.71919405
  entropy T*S    EENTRO =        -0.00000000
  eigenvalues    EBANDS =      -546.76984888
  atomic energy  EATOM  =      3646.96668234
  Solvation  Ediel_sol  =         0.00000000
  ---------------------------------------------------
  free energy    TOTEN  =       -40.58355368 eV

  energy without entropy =      -40.58355368  energy(sigma->0) =      -40.58355368


--------------------------------------------------------------------------------------------------------




--------------------------------------- Iteration      1(   5)  ---------------------------------------


     EDDAV:  cpu time      8.4081: real time      8.4241
       DOS:  cpu time      0.0025: real time      0.0025
    CHARGE:  cpu time      0.7887: real time      0.7900
    MIXING:  cpu time      0.0226: real time      0.0227
    --------------------------------------------
      LOOP:  cpu time      9.2219: real time      9.2392

 eigenvalue-minimisations  : 21976
 total energy-change (2. order) :-0.1255506E+00  (-0.1255029E+00)
 number of electron      58.0000012 magnetization      11.6515753
 augmentation part        0.7759451 magnetization       8.1574399

 Broyden mixing:
  rms(total) = 0.22776E+01    rms(broyden)= 0.22775E+01
  rms(prec ) = 0.24895E+01
  weight for this iteration     100.00

 Free energy of the ion-electron system (eV)
  ---------------------------------------------------
  alpha Z        PSCENC =        34.59238289
  Ewald energy   TEWEN  =      5188.14700503
  -Hartree energ DENC   =     -8504.54391050
  -exchange      EXHF   =         0.00000000
  -V(xc)+E(xc)   XCENC  =       134.48172287
  PAW double counting   =      3052.26160663    -3045.71919405
  entropy T*S    EENTRO =        -0.00000000
  eigenvalues    EBANDS =      -546.89539947
  atomic energy  EATOM  =      3646.96668234
  Solvation  Ediel_sol  =         0.00000000
  ---------------------------------------------------
  free energy    TOTEN  =       -40.70910427 eV

  energy without entropy =      -40.70910427  energy(sigma->0) =      -40.70910427


--------------------------------------------------------------------------------------------------------




--------------------------------------- Iteration      1(   6)  ---------------------------------------


    POTLOK:  cpu time      0.0249: real time      0.0252
    SETDIJ:  cpu time      0.0319: real time      0.0319
     EDDAV:  cpu time      8.5764: real time      8.5924
       DOS:  cpu time      0.0047: real time      0.0047
    CHARGE:  cpu time      0.7815: real time      0.7827
    MIXING:  cpu time      0.0240: real time      0.0240
    --------------------------------------------
      LOOP:  cpu time      9.4434: real time      9.4611

 eigenvalue-minimisations  : 22768
 total energy-change (2. order) : 0.1103413E+02  (-0.4236274E+01)
 number of electron      58.0000015 magnetization      11.6025939
 augmentation part        3.7034256 magnetization       6.9418393

 Broyden mixing:
  rms(total) = 0.40498E+01    rms(broyden)= 0.40498E+01
  rms(prec ) = 0.40829E+01
  weight for this iteration     100.00

 eigenvalues of (default mixing * dielectric matrix)
  average eigenvalue GAMMA=   0.0655
  0.0655

 Free energy of the ion-electron system (eV)
  ---------------------------------------------------
  alpha Z        PSCENC =        34.59238289
  Ewald energy   TEWEN  =      5188.14700503
  -Hartree energ DENC   =     -8446.56621008
  -exchange      EXHF   =         0.00000000
  -V(xc)+E(xc)   XCENC  =       134.64518693
  PAW double counting   =      3346.82635787    -3336.28753183
  entropy T*S    EENTRO =        -0.00095752
  eigenvalues    EBANDS =      -597.99788736
  atomic energy  EATOM  =      3646.96668234
  Solvation  Ediel_sol  =         0.00000000
  ---------------------------------------------------
  free energy    TOTEN  =       -29.67497173 eV

  energy without entropy =      -29.67401421  energy(sigma->0) =      -29.67449297


--------------------------------------------------------------------------------------------------------




--------------------------------------- Iteration      1(   7)  ---------------------------------------


    POTLOK:  cpu time      0.0231: real time      0.0233
    SETDIJ:  cpu time      0.0320: real time      0.0321
     EDDAV:  cpu time      8.1838: real time      8.1995
       DOS:  cpu time      0.0025: real time      0.0026
    CHARGE:  cpu time      0.7756: real time      0.7770
    MIXING:  cpu time      0.0243: real time      0.0244
    --------------------------------------------
      LOOP:  cpu time      9.0414: real time      9.0588

 eigenvalue-minimisations  : 21264
 total energy-change (2. order) :-0.4387796E+00  (-0.8801341E+00)
 number of electron      58.0000013 magnetization      11.3446440
 augmentation part        3.1255869 magnetization       7.2245707

 Broyden mixing:
  rms(total) = 0.27906E+01    rms(broyden)= 0.27906E+01
  rms(prec ) = 0.28045E+01
  weight for this iteration     100.00

 eigenvalues of (default mixing * dielectric matrix)
  average eigenvalue GAMMA=   0.4988
  0.4988  0.4988

 Free energy of the ion-electron system (eV)
  ---------------------------------------------------
  alpha Z        PSCENC =        34.59238289
  Ewald energy   TEWEN  =      5188.14700503
  -Hartree energ DENC   =     -8452.58432301
  -exchange      EXHF   =         0.00000000
  -V(xc)+E(xc)   XCENC  =       133.93297588
  PAW double counting   =      3416.72073653    -3408.66374373
  entropy T*S    EENTRO =        -0.00000000
  eigenvalues    EBANDS =      -589.22546722
  atomic energy  EATOM  =      3646.96668234
  Solvation  Ediel_sol  =         0.00000000
  ---------------------------------------------------
  free energy    TOTEN  =       -30.11375128 eV

  energy without entropy =      -30.11375128  energy(sigma->0) =      -30.11375128


--------------------------------------------------------------------------------------------------------




--------------------------------------- Iteration      1(   8)  ---------------------------------------


    POTLOK:  cpu time      0.0248: real time      0.0250
    SETDIJ:  cpu time      0.0317: real time      0.0318
     EDDAV:  cpu time      8.5505: real time      8.5663
       DOS:  cpu time      0.0025: real time      0.0025
    CHARGE:  cpu time      0.7737: real time      0.7750
    MIXING:  cpu time      0.0251: real time      0.0252
    --------------------------------------------
      LOOP:  cpu time      9.4084: real time      9.4258

 eigenvalue-minimisations  : 22576
 total energy-change (2. order) : 0.5602719E+00  (-0.1236622E+00)
 number of electron      58.0000013 magnetization      10.8543657
 augmentation part        2.9304178 magnetization       6.9868026

 Broyden mixing:
  rms(total) = 0.23004E+01    rms(broyden)= 0.23004E+01
  rms(prec ) = 0.23077E+01
  weight for this iteration     100.00

 eigenvalues of (default mixing * dielectric matrix)
  average eigenvalue GAMMA=   0.8613
  0.3479  0.8068  1.4292

 Free energy of the ion-electron system (eV)
  ---------------------------------------------------
  alpha Z        PSCENC =        34.59238289
  Ewald energy   TEWEN  =      5188.14700503
  -Hartree energ DENC   =     -8443.14211403
  -exchange      EXHF   =         0.00000000
  -V(xc)+E(xc)   XCENC  =       135.39092302
  PAW double counting   =      3807.50907054    -3800.98446101
  entropy T*S    EENTRO =        -0.00000000
  eigenvalues    EBANDS =      -598.03296812
  atomic energy  EATOM  =      3646.96668234
  Solvation  Ediel_sol  =         0.00000000
  ---------------------------------------------------
  free energy    TOTEN  =       -29.55347934 eV

  energy without entropy =      -29.55347934  energy(sigma->0) =      -29.55347934


--------------------------------------------------------------------------------------------------------




--------------------------------------- Iteration      1(   9)  ---------------------------------------


    POTLOK:  cpu time      0.0230: real time      0.0234
    SETDIJ:  cpu time      0.0320: real time      0.0320
     EDDAV:  cpu time      7.5641: real time      7.5783
       DOS:  cpu time      0.0025: real time      0.0025
    CHARGE:  cpu time      0.7704: real time      0.7745
    MIXING:  cpu time      0.0255: real time      0.0256
    --------------------------------------------
      LOOP:  cpu time      8.4175: real time      8.4363

 eigenvalue-minimisations  : 19152
 total energy-change (2. order) : 0.4067262E+00  (-0.7377525E-01)
 number of electron      58.0000013 magnetization      10.7466927
 augmentation part        3.0239373 magnetization       6.7583935

 Broyden mixing:
  rms(total) = 0.12158E+01    rms(broyden)= 0.12158E+01
  rms(prec ) = 0.12432E+01
  weight for this iteration     100.00

 eigenvalues of (default mixing * dielectric matrix)
  average eigenvalue GAMMA=   0.9563
  1.4379  1.4379  0.3794  0.5701

 Free energy of the ion-electron system (eV)
  ---------------------------------------------------
  alpha Z        PSCENC =        34.59238289
  Ewald energy   TEWEN  =      5188.14700503
  -Hartree energ DENC   =     -8430.85901367
  -exchange      EXHF   =         0.00000000
  -V(xc)+E(xc)   XCENC  =       135.52277816
  PAW double counting   =      4365.59851813    -4364.64659915
  entropy T*S    EENTRO =        -0.00000000
  eigenvalues    EBANDS =      -604.46850682
  atomic energy  EATOM  =      3646.96668234
  Solvation  Ediel_sol  =         0.00000000
  ---------------------------------------------------
  free energy    TOTEN  =       -29.14675310 eV

  energy without entropy =      -29.14675310  energy(sigma->0) =      -29.14675310


--------------------------------------------------------------------------------------------------------




--------------------------------------- Iteration      1(  10)  ---------------------------------------


    POTLOK:  cpu time      0.0248: real time      0.0251
    SETDIJ:  cpu time      0.0319: real time      0.0320
     EDDAV:  cpu time      7.7306: real time      7.7452
       DOS:  cpu time      0.0026: real time      0.0026
    CHARGE:  cpu time      0.7734: real time      0.7746
    MIXING:  cpu time      0.0276: real time      0.0276
    --------------------------------------------
      LOOP:  cpu time      8.5909: real time      8.6071

 eigenvalue-minimisations  : 19720
 total energy-change (2. order) :-0.5040811E+00  (-0.1286610E+00)
 number of electron      58.0000013 magnetization      10.6483711
 augmentation part        2.6773315 magnetization       6.7845115

 Broyden mixing:
  rms(total) = 0.45640E+00    rms(broyden)= 0.45639E+00
  rms(prec ) = 0.46568E+00
  weight for this iteration     100.00

 eigenvalues of (default mixing * dielectric matrix)
  average eigenvalue GAMMA=   1.0267
  1.6565  1.6565  0.3720  0.8448  0.6037

 Free energy of the ion-electron system (eV)
  ---------------------------------------------------
  alpha Z        PSCENC =        34.59238289
  Ewald energy   TEWEN  =      5188.14700503
  -Hartree energ DENC   =     -8442.00061852
  -exchange      EXHF   =         0.00000000
  -V(xc)+E(xc)   XCENC  =       133.77992171
  PAW double counting   =      4324.18491192    -4325.35072405
  entropy T*S    EENTRO =        -0.00000000
  eigenvalues    EBANDS =      -589.97039556
  atomic energy  EATOM  =      3646.96668234
  Solvation  Ediel_sol  =         0.00000000
  ---------------------------------------------------
  free energy    TOTEN  =       -29.65083424 eV

  energy without entropy =      -29.65083424  energy(sigma->0) =      -29.65083424


--------------------------------------------------------------------------------------------------------




--------------------------------------- Iteration      1(  11)  ---------------------------------------


    POTLOK:  cpu time      0.0249: real time      0.0251
    SETDIJ:  cpu time      0.0322: real time      0.0323
     EDDAV:  cpu time      8.9293: real time      8.9456
       DOS:  cpu time      0.0026: real time      0.0026
    CHARGE:  cpu time      0.7736: real time      0.7749
    MIXING:  cpu time      0.0307: real time      0.0308
    --------------------------------------------
      LOOP:  cpu time      9.7933: real time      9.8112

 eigenvalue-minimisations  : 23848
 total energy-change (2. order) :-0.1652828E+00  (-0.2600394E-01)
 number of electron      58.0000013 magnetization      10.4196141
 augmentation part        2.4992416 magnetization       6.6494984

 Broyden mixing:
  rms(total) = 0.24652E+00    rms(broyden)= 0.24650E+00
  rms(prec ) = 0.24914E+00
  weight for this iteration     100.00

 eigenvalues of (default mixing * dielectric matrix)
  average eigenvalue GAMMA=   1.1466
  2.4261  1.4029  1.4029  0.3706  0.6386  0.6386

 Free energy of the ion-electron system (eV)
  ---------------------------------------------------
  alpha Z        PSCENC =        34.59238289
  Ewald energy   TEWEN  =      5188.14700503
  -Hartree energ DENC   =     -8447.75226035
  -exchange      EXHF   =         0.00000000
  -V(xc)+E(xc)   XCENC  =       133.74218166
  PAW double counting   =      4297.79868035    -4299.83185727
  entropy T*S    EENTRO =        -0.00000000
  eigenvalues    EBANDS =      -583.47893173
  atomic energy  EATOM  =      3646.96668234
  Solvation  Ediel_sol  =         0.00000000
  ---------------------------------------------------
  free energy    TOTEN  =       -29.81611707 eV

  energy without entropy =      -29.81611707  energy(sigma->0) =      -29.81611707


--------------------------------------------------------------------------------------------------------




--------------------------------------- Iteration      1(  12)  ---------------------------------------


    POTLOK:  cpu time      0.0229: real time      0.0231
    SETDIJ:  cpu time      0.0324: real time      0.0325
     EDDAV:  cpu time      8.7658: real time      8.7818
       DOS:  cpu time      0.0025: real time      0.0025
    CHARGE:  cpu time      0.7754: real time      0.7766
    MIXING:  cpu time      0.0317: real time      0.0318
    --------------------------------------------
      LOOP:  cpu time      9.6307: real time      9.6483

 eigenvalue-minimisations  : 23296
 total energy-change (2. order) :-0.5491061E-01  (-0.1269867E-01)
 number of electron      58.0000013 magnetization      10.3457919
 augmentation part        2.6153191 magnetization       6.4975038

 Broyden mixing:
  rms(total) = 0.17811E+00    rms(broyden)= 0.17811E+00
  rms(prec ) = 0.18592E+00
  weight for this iteration     100.00

 eigenvalues of (default mixing * dielectric matrix)
  average eigenvalue GAMMA=   1.1498
  2.4494  1.5712  1.5712  0.3706  0.7056  0.7056  0.6748

 Free energy of the ion-electron system (eV)
  ---------------------------------------------------
  alpha Z        PSCENC =        34.59238289
  Ewald energy   TEWEN  =      5188.14700503
  -Hartree energ DENC   =     -8448.29514979
  -exchange      EXHF   =         0.00000000
  -V(xc)+E(xc)   XCENC  =       133.91044657
  PAW double counting   =      4359.27157955    -4361.97836971
  entropy T*S    EENTRO =        -0.00000000
  eigenvalues    EBANDS =      -582.48560456
  atomic energy  EATOM  =      3646.96668234
  Solvation  Ediel_sol  =         0.00000000
  ---------------------------------------------------
  free energy    TOTEN  =       -29.87102768 eV

  energy without entropy =      -29.87102768  energy(sigma->0) =      -29.87102768


--------------------------------------------------------------------------------------------------------




--------------------------------------- Iteration      1(  13)  ---------------------------------------


    POTLOK:  cpu time      0.0248: real time      0.0251
    SETDIJ:  cpu time      0.0321: real time      0.0322
     EDDAV:  cpu time      8.4942: real time      8.5104
       DOS:  cpu time      0.0026: real time      0.0026
    CHARGE:  cpu time      0.7718: real time      0.7729
    MIXING:  cpu time      0.0323: real time      0.0324
    --------------------------------------------
      LOOP:  cpu time      9.3578: real time      9.3756

 eigenvalue-minimisations  : 22368
 total energy-change (2. order) :-0.1562531E+00  (-0.6807023E-02)
 number of electron      58.0000013 magnetization      10.2815204
 augmentation part        2.5307397 magnetization       6.4759686

 Broyden mixing:
  rms(total) = 0.37837E-01    rms(broyden)= 0.37832E-01
  rms(prec ) = 0.38558E-01
  weight for this iteration     100.00

 eigenvalues of (default mixing * dielectric matrix)
  average eigenvalue GAMMA=   1.1337
  2.3960  1.5940  1.5940  1.1371  0.3704  0.7225  0.6278  0.6278

 Free energy of the ion-electron system (eV)
  ---------------------------------------------------
  alpha Z        PSCENC =        34.59238289
  Ewald energy   TEWEN  =      5188.14700503
  -Hartree energ DENC   =     -8451.10054833
  -exchange      EXHF   =         0.00000000
  -V(xc)+E(xc)   XCENC  =       133.53596111
  PAW double counting   =      4330.81307191    -4333.68790022
  entropy T*S    EENTRO =        -0.00000000
  eigenvalues    EBANDS =      -579.29393556
  atomic energy  EATOM  =      3646.96668234
  Solvation  Ediel_sol  =         0.00000000
  ---------------------------------------------------
  free energy    TOTEN  =       -30.02728083 eV

  energy without entropy =      -30.02728083  energy(sigma->0) =      -30.02728083


--------------------------------------------------------------------------------------------------------




--------------------------------------- Iteration      1(  14)  ---------------------------------------


    POTLOK:  cpu time      0.0229: real time      0.0232
    SETDIJ:  cpu time      0.0323: real time      0.0324
     EDDAV:  cpu time      8.5786: real time      8.5948
       DOS:  cpu time      0.0026: real time      0.0026
    CHARGE:  cpu time      0.7748: real time      0.7761
    MIXING:  cpu time      0.0341: real time      0.0341
    --------------------------------------------
      LOOP:  cpu time      9.4454: real time      9.4633

 eigenvalue-minimisations  : 22720
 total energy-change (2. order) :-0.6872866E-01  (-0.1485745E-02)
 number of electron      58.0000013 magnetization      10.2419586
 augmentation part        2.5059620 magnetization       6.4475413

 Broyden mixing:
  rms(total) = 0.29946E-01    rms(broyden)= 0.29942E-01
  rms(prec ) = 0.30827E-01
  weight for this iteration     100.00

 eigenvalues of (default mixing * dielectric matrix)
  average eigenvalue GAMMA=   1.0968
  2.5049  1.6287  1.6287  0.3705  0.9170  0.9170  0.6543  0.6543  0.5956

 Free energy of the ion-electron system (eV)
  ---------------------------------------------------
  alpha Z        PSCENC =        34.59238289
  Ewald energy   TEWEN  =      5188.14700503
  -Hartree energ DENC   =     -8451.59056122
  -exchange      EXHF   =         0.00000000
  -V(xc)+E(xc)   XCENC  =       133.44470314
  PAW double counting   =      4320.19599860    -4323.08391258
  entropy T*S    EENTRO =        -0.00000000
  eigenvalues    EBANDS =      -578.76830769
  atomic energy  EATOM  =      3646.96668234
  Solvation  Ediel_sol  =         0.00000000
  ---------------------------------------------------
  free energy    TOTEN  =       -30.09600949 eV

  energy without entropy =      -30.09600949  energy(sigma->0) =      -30.09600949


--------------------------------------------------------------------------------------------------------




--------------------------------------- Iteration      1(  15)  ---------------------------------------


    POTLOK:  cpu time      0.0249: real time      0.0414
    SETDIJ:  cpu time      0.0322: real time      0.0322
     EDDAV:  cpu time      7.6764: real time      7.6906
       DOS:  cpu time      0.0026: real time      0.0026
    CHARGE:  cpu time      0.7725: real time      0.7738
    MIXING:  cpu time      0.0346: real time      0.0347
    --------------------------------------------
      LOOP:  cpu time      8.5433: real time      8.5754

 eigenvalue-minimisations  : 19496
 total energy-change (2. order) :-0.2012012E-01  (-0.2916097E-03)
 number of electron      58.0000013 magnetization      10.1437255
 augmentation part        2.5157356 magnetization       6.3472914

 Broyden mixing:
  rms(total) = 0.22919E-01    rms(broyden)= 0.22918E-01
  rms(prec ) = 0.23116E-01
  weight for this iteration     100.00

 eigenvalues of (default mixing * dielectric matrix)
  average eigenvalue GAMMA=   1.1274
  2.5506  1.6628  1.6628  1.1820  0.9535  0.9535  0.3705  0.6446  0.6446  0.6489

 Free energy of the ion-electron system (eV)
  ---------------------------------------------------
  alpha Z        PSCENC =        34.59238289
  Ewald energy   TEWEN  =      5188.14700503
  -Hartree energ DENC   =     -8451.07830843
  -exchange      EXHF   =         0.00000000
  -V(xc)+E(xc)   XCENC  =       133.44096164
  PAW double counting   =      4319.99407281    -4322.87932996
  entropy T*S    EENTRO =        -0.00000000
  eigenvalues    EBANDS =      -579.29959592
  atomic energy  EATOM  =      3646.96668234
  Solvation  Ediel_sol  =         0.00000000
  ---------------------------------------------------
  free energy    TOTEN  =       -30.11612961 eV

  energy without entropy =      -30.11612961  energy(sigma->0) =      -30.11612961


--------------------------------------------------------------------------------------------------------




--------------------------------------- Iteration      1(  16)  ---------------------------------------


    POTLOK:  cpu time      0.0228: real time      0.0231
    SETDIJ:  cpu time      0.0322: real time      0.0323
     EDDAV:  cpu time      7.2246: real time      7.2382
       DOS:  cpu time      0.0027: real time      0.0027
    CHARGE:  cpu time      0.7763: real time      0.7776
    MIXING:  cpu time      0.0364: real time      0.0365
    --------------------------------------------
      LOOP:  cpu time      8.0950: real time      8.1103

 eigenvalue-minimisations  : 17936
 total energy-change (2. order) :-0.6272241E-01  (-0.7187899E-03)
 number of electron      58.0000013 magnetization      10.0477164
 augmentation part        2.5167086 magnetization       6.2524658

 Broyden mixing:
  rms(total) = 0.15845E-01    rms(broyden)= 0.15844E-01
  rms(prec ) = 0.16032E-01
  weight for this iteration     100.00

[...]
     26      -3.3393      0.00000
     27      -3.2973      0.00000
     28      -3.2587      0.00000
     29      -3.1856      0.00000
     30      -3.1125      0.00000
     31      -2.9407      0.00000
     32      -2.8457      0.00000
     33      -2.8251      0.00000
     34      -2.7915      0.00000
     35       2.4388      0.00000
     36       2.5538      0.00000
     37       2.8837      0.00000
     38       3.2241      0.00000
     39       3.2307      0.00000
     40       3.4392      0.00000

 k-point    96 :       0.3333    0.2917    0.0000
  band No.  band energies     occupation 
      1     -18.7963      1.00000
      2     -18.7276      1.00000
      3     -18.4299      1.00000
      4     -18.3081      1.00000
      5     -18.2847      1.00000
      6     -18.2100      1.00000
      7      -8.7087      1.00000
      8      -8.5998      1.00000
      9      -8.0469      1.00000
     10      -7.9903      1.00000
     11      -7.9490      1.00000
     12      -7.6058      1.00000
     13      -7.5942      1.00000
     14      -7.4719      1.00000
     15      -7.2411      1.00000
     16      -6.8336      1.00000
     17      -6.5379      1.00000
     18      -6.3426      1.00000
     19      -6.2780      1.00000
     20      -5.9928      1.00000
     21      -5.9110      1.00000
     22      -5.8286      1.00000
     23      -5.6270      1.00000
     24      -5.6208      1.00000
     25      -3.3486      0.00000
     26      -3.3358      0.00000
     27      -3.3102      0.00000
     28      -3.2697      0.00000
     29      -3.1735      0.00000
     30      -3.1309      0.00000
     31      -2.9393      0.00000
     32      -2.8373      0.00000
     33      -2.8256      0.00000
     34      -2.7864      0.00000
     35       2.4472      0.00000
     36       2.5328      0.00000
     37       2.9832      0.00000
     38       3.1291      0.00000
     39       3.2249      0.00000
     40       3.5652      0.00000

 k-point    97 :      -0.3333   -0.3750    0.0000
  band No.  band energies     occupation 
      1     -18.7963      1.00000
      2     -18.7276      1.00000
      3     -18.4300      1.00000
      4     -18.3082      1.00000
      5     -18.2847      1.00000
      6     -18.2100      1.00000
      7      -8.7086      1.00000
      8      -8.5998      1.00000
      9      -8.0469      1.00000
     10      -7.9903      1.00000
     11      -7.9490      1.00000
     12      -7.6069      1.00000
     13      -7.5928      1.00000
     14      -7.4722      1.00000
     15      -7.2411      1.00000
     16      -6.8336      1.00000
     17      -6.5380      1.00000
     18      -6.3420      1.00000
     19      -6.2787      1.00000
     20      -5.9923      1.00000
     21      -5.9113      1.00000
     22      -5.8286      1.00000
     23      -5.6268      1.00000
     24      -5.6210      1.00000
     25      -3.3485      0.00000
     26      -3.3359      0.00000
     27      -3.3102      0.00000
     28      -3.2696      0.00000
     29      -3.1735      0.00000
     30      -3.1309      0.00000
     31      -2.9393      0.00000
     32      -2.8373      0.00000
     33      -2.8256      0.00000
     34      -2.7864      0.00000
     35       2.4472      0.00000
     36       2.5328      0.00000
     37       2.9832      0.00000
     38       3.1290      0.00000
     39       3.2248      0.00000
     40       3.5653      0.00000

 k-point    98 :       0.3333    0.3333    0.0000
  band No.  band energies     occupation 
      1     -18.7614      1.00000
      2     -18.7613      1.00000
      3     -18.4321      1.00000
      4     -18.2959      1.00000
      5     -18.2958      1.00000
      6     -18.2107      1.00000
      7      -8.6509      1.00000
      8      -8.6509      1.00000
      9      -8.0117      1.00000
     10      -8.0116      1.00000
     11      -7.9700      1.00000
     12      -7.5967      1.00000
     13      -7.5966      1.00000
     14      -7.4728      1.00000
     15      -7.2605      1.00000
     16      -6.8357      1.00000
     17      -6.5065      1.00000
     18      -6.3159      1.00000
     19      -6.3158      1.00000
     20      -5.9501      1.00000
     21      -5.9501      1.00000
     22      -5.8297      1.00000
     23      -5.6267      1.00000
     24      -5.6266      1.00000
     25      -3.3306      0.00000
     26      -3.3269      0.00000
     27      -3.3268      0.00000
     28      -3.2800      0.00000
     29      -3.1548      0.00000
     30      -3.1547      0.00000
     31      -2.9379      0.00000
     32      -2.8297      0.00000
     33      -2.8297      0.00000
     34      -2.7835      0.00000
     35       2.4853      0.00000
     36       2.4855      0.00000
     37       3.0605      0.00000
     38       3.0605      0.00000
     39       3.2172      0.00000
     40       3.6698      0.00000


--------------------------------------------------------------------------------------------------------


 soft charge-density along one line, spin component            1
         0         1         2         3         4         5         6         7         8         9
 total charge-density along one line
 
 soft charge-density along one line, spin component            2
         0         1         2         3         4         5         6         7         8         9
 total charge-density along one line
 
 pseudopotential strength for first ion, spin component:            1
-16.024   0.022   0.000  -0.000   0.000 -16.339   0.019   0.000
  0.022 -15.999  -0.000  -0.000  -0.000   0.019 -16.317  -0.000
  0.000  -0.000 -16.039  -0.000  -0.000   0.000  -0.000 -16.351
 -0.000  -0.000  -0.000 -15.999  -0.022  -0.000  -0.000  -0.000
  0.000  -0.000  -0.000  -0.022 -16.024   0.000  -0.000  -0.000
-16.339   0.019   0.000  -0.000   0.000 -16.635   0.014   0.000
  0.019 -16.317  -0.000  -0.000  -0.000   0.014 -16.616  -0.000
  0.000  -0.000 -16.351  -0.000  -0.000   0.000  -0.000 -16.644
 -0.000  -0.000  -0.000 -16.317  -0.019  -0.000  -0.000  -0.000
  0.000  -0.000  -0.000  -0.019 -16.339   0.000  -0.000  -0.000
  0.000   0.000  -0.001   0.000  -0.000   0.000   0.000  -0.001
  0.000   0.000  -0.001   0.000  -0.000   0.000   0.000  -0.001
 -0.000   0.000   0.000  -0.000   0.001  -0.000   0.000   0.000
 -0.000  -0.000   0.001   0.000  -0.000  -0.000  -0.000   0.001
  0.001  -0.000  -0.000   0.000   0.000   0.001  -0.000  -0.000
 -0.000   0.000   0.000  -0.000   0.002  -0.000   0.000   0.000
 -0.000  -0.000   0.001   0.000  -0.000  -0.000  -0.000   0.001
  0.002  -0.000  -0.000   0.000   0.000   0.002  -0.000  -0.000
 pseudopotential strength for first ion, spin component:            2
-10.384  -0.525   0.000   0.005   0.000 -10.736  -0.532   0.000
 -0.525 -10.793  -0.000  -0.000   0.005  -0.532 -11.150  -0.000
  0.000  -0.000  -9.977  -0.000  -0.000   0.000  -0.000 -10.323
  0.005  -0.000  -0.000 -10.793   0.525   0.005  -0.000  -0.000
  0.000   0.005  -0.000   0.525 -10.384   0.000   0.005  -0.000
-10.736  -0.532   0.000   0.005   0.000 -11.038  -0.544   0.000
 -0.532 -11.150  -0.000  -0.000   0.005  -0.544 -11.461  -0.000
  0.000  -0.000 -10.323  -0.000  -0.000   0.000  -0.000 -10.617
  0.005  -0.000  -0.000 -11.150   0.532   0.005  -0.000  -0.000
  0.000   0.005  -0.000   0.532 -10.736   0.000   0.005  -0.000
  0.000   0.000  -0.000   0.000  -0.000   0.000   0.000  -0.000
  0.000   0.000  -0.000   0.000  -0.000   0.000   0.000  -0.000
  0.000   0.001   0.000  -0.000  -0.002   0.000   0.001   0.000
 -0.000  -0.000   0.001   0.000  -0.000  -0.000  -0.000   0.001
 -0.002  -0.000  -0.000   0.001  -0.000  -0.001  -0.000  -0.000
  0.000   0.001   0.000  -0.000  -0.002   0.000   0.001   0.000
 -0.000  -0.000   0.001   0.000  -0.000  -0.000  -0.000   0.001
 -0.002  -0.000  -0.000   0.001  -0.000  -0.002  -0.000  -0.000
 total augmentation occupancy for first ion, spin component:            1
  6.954   2.230  -0.000  -0.013   0.000  -4.767  -2.165   0.000   0.013  -0.000  -0.000   0.000   0.011   0.000  -0.090  -0.000
  2.230   8.535   0.000   0.000  -0.013  -2.166  -6.289  -0.000  -0.000   0.013   0.000   0.000   0.012   0.000  -0.003   0.000
 -0.000   0.000   5.291   0.000  -0.000   0.000  -0.000  -3.144  -0.000   0.000   0.031  -0.003   0.000  -0.004   0.000  -0.000
 -0.013   0.000   0.000   8.535  -2.230   0.013   0.000  -0.000  -6.289   2.166   0.000   0.000   0.003   0.000   0.012  -0.000
  0.000  -0.013  -0.000  -2.230   6.954   0.000   0.013   0.000   2.165  -4.767  -0.000   0.000  -0.090   0.000  -0.011   0.006
 -4.767  -2.166   0.000   0.013   0.000   3.818   2.236  -0.000  -0.014   0.000   0.000  -0.000  -0.012  -0.000   0.097   0.001
 -2.165  -6.289  -0.000   0.000   0.013   2.236   5.387   0.000   0.000  -0.014   0.000   0.000  -0.014   0.000  -0.002   0.001
  0.000  -0.000  -3.144  -0.000   0.000  -0.000   0.000   2.134   0.000  -0.000  -0.032   0.004  -0.000   0.004  -0.000   0.000
  0.013  -0.000  -0.000  -6.289   2.165  -0.014   0.000   0.000   5.387  -2.236   0.000   0.000   0.002   0.000  -0.014  -0.000
 -0.000   0.013   0.000   2.166  -4.767   0.000  -0.014  -0.000  -2.236   3.818   0.000  -0.000   0.097  -0.000   0.012  -0.008
 -0.000   0.000   0.031   0.000  -0.000   0.000   0.000  -0.032  -0.000   0.000   1.479  -0.140   0.000  -0.006   0.000   0.000
  0.000   0.000  -0.003  -0.000   0.000  -0.000   0.000   0.004   0.000  -0.000  -0.140   0.030   0.000   0.001   0.000   0.000
  0.011   0.012   0.000   0.003  -0.090  -0.012  -0.014  -0.000   0.002   0.097   0.000   0.000   0.221  -0.000   0.000  -0.020
  0.000   0.000  -0.004   0.000   0.000  -0.000  -0.000   0.004  -0.000  -0.000  -0.006   0.001  -0.000   0.219   0.000   0.000
 -0.090  -0.003   0.000   0.012  -0.011   0.097  -0.002  -0.000  -0.014   0.012   0.000   0.000   0.000   0.000   0.221   0.000
 -0.000   0.000  -0.000  -0.000   0.006   0.001   0.001   0.000  -0.000  -0.008   0.000   0.000  -0.020   0.000   0.000   0.003
 -0.000   0.000   0.001   0.000  -0.000   0.000   0.000  -0.000  -0.000   0.000   0.001  -0.000   0.000  -0.019  -0.000  -0.000
  0.006   0.000  -0.000   0.000   0.000  -0.008   0.000   0.000   0.001  -0.001  -0.000  -0.000  -0.000  -0.000  -0.020   0.000
 total augmentation occupancy for first ion, spin component:            2
  6.627   1.959  -0.000  -0.012   0.000  -4.268  -1.803   0.000   0.011   0.000  -0.000  -0.000   0.006   0.000  -0.039   0.000
  1.959   8.034   0.000   0.000  -0.012  -1.802  -5.569  -0.000   0.000   0.011   0.000   0.000   0.007   0.000   0.005   0.001
 -0.000   0.000   5.166   0.000  -0.000   0.000  -0.000  -2.924  -0.000   0.000   0.005   0.001   0.000  -0.003   0.000   0.000
 -0.012   0.000   0.000   8.034  -1.959   0.011  -0.000  -0.000  -5.569   1.802   0.000   0.000  -0.005   0.000   0.007   0.000
  0.000  -0.012  -0.000  -1.959   6.627  -0.000   0.011   0.000   1.803  -4.268  -0.000  -0.000  -0.039   0.000  -0.006  -0.002
 -4.268  -1.802   0.000   0.011  -0.000   2.846   1.524  -0.000  -0.010   0.000   0.000   0.000  -0.004  -0.000   0.027  -0.000
 -1.803  -5.569  -0.000  -0.000   0.011   1.524   3.943   0.000   0.000  -0.010   0.000   0.000  -0.005  -0.000   0.000  -0.001
  0.000  -0.000  -2.924  -0.000   0.000  -0.000   0.000   1.710   0.000  -0.000  -0.003  -0.002  -0.000   0.002  -0.000  -0.000
  0.011   0.000  -0.000  -5.569   1.803  -0.010   0.000   0.000   3.943  -1.524  -0.000  -0.000  -0.000   0.000  -0.005  -0.000
  0.000   0.011   0.000   1.802  -4.268   0.000  -0.010  -0.000  -1.524   2.846   0.000   0.000   0.027  -0.000   0.004   0.002
 -0.000   0.000   0.005   0.000  -0.000   0.000   0.000  -0.003  -0.000   0.000  -0.247   0.104   0.000   0.001  -0.000   0.000
 -0.000   0.000   0.001   0.000  -0.000   0.000   0.000  -0.002  -0.000   0.000   0.104  -0.012   0.000  -0.000   0.000   0.000
  0.006   0.007   0.000  -0.005  -0.039  -0.004  -0.005  -0.000  -0.000   0.027   0.000   0.000  -0.002   0.000  -0.000   0.006
  0.000   0.000  -0.003   0.000   0.000  -0.000  -0.000   0.002   0.000  -0.000   0.001  -0.000   0.000  -0.004   0.000  -0.000
 -0.039   0.005   0.000   0.007  -0.006   0.027   0.000  -0.000  -0.005   0.004  -0.000   0.000  -0.000   0.000  -0.002  -0.000
  0.000   0.001   0.000   0.000  -0.002  -0.000  -0.001  -0.000  -0.000   0.002   0.000   0.000   0.006  -0.000  -0.000  -0.001
 -0.000   0.000   0.000  -0.000  -0.000   0.000   0.000  -0.000   0.000   0.000  -0.000   0.000   0.000   0.006   0.000  -0.000
 -0.002  -0.000   0.000   0.001  -0.000   0.002   0.000  -0.000  -0.001   0.000   0.000   0.000   0.000   0.000   0.006  -0.000


------------------------ aborting loop because EDIFF is reached ----------------------------------------


    CHARGE:  cpu time      1.0081: real time      1.0099
    FORLOC:  cpu time      0.0080: real time      0.0080
    FORNL :  cpu time      7.4642: real time      7.4751
    STRESS:  cpu time     18.3861: real time     18.4194
    FORCOR:  cpu time      0.0260: real time      0.0260
    FORHAR:  cpu time      0.0057: real time      0.0057
    MIXING:  cpu time      0.0289: real time      0.0290
    OFIELD:  cpu time      0.0000: real time      0.0000

 ---------------------------------------------------------------------------------------------

         DFTD3 V3.0 Rev 1        
 Edisp (eV)   -0.74858

 E6    (eV) :    -0.2791
 E8    (eV) :    -0.4694
 % E8        : 62.71
    FORVDW:  cpu time      0.0072: real time      0.0073

  FORCE on cell =-STRESS in cart. coord.  units (eV):
  Direction    XX          YY          ZZ          XY          YZ          ZX
  --------------------------------------------------------------------------------------
  Alpha Z    34.62996    34.62996    34.62996
  Ewald    7033.84909  7033.85122 -8901.27870     0.00199    -0.00040     0.00316
  Hartree  7848.05682  7848.05804 -7268.81937     0.00144     0.00002    -0.00016
  E(xc)    -236.01550  -236.01551  -236.32372    -0.00001    -0.00000    -0.00000
  Local  -15925.64112-15925.64322 15123.29777    -0.00347     0.00018    -0.00206
  n-local   452.61715   452.90928   452.24861    -0.15188     0.04766    -0.03568
  augment   -35.02890   -35.02900   -35.09116    -0.00006     0.00002    -0.00013
  Kinetic   827.12262   826.45448   830.32127     0.13567    -0.07999     0.05688
  Fock        0.00000     0.00000     0.00000     0.00000     0.00000     0.00000
  vdW         0.58932     0.58931     0.95926     0.00001     0.00001    -0.00001
  -------------------------------------------------------------------------------------
  Total      -0.00799    -0.00799    -0.05607    -0.00000     0.00000    -0.00000
  in kB      -0.02159    -0.02159    -0.15161    -0.00000     0.00000    -0.00000
  external pressure =       -0.06 kB  Pullay stress =        0.00 kB


 VOLUME and BASIS-vectors are now :
 -----------------------------------------------------------------------------
  energy-cutoff  :      520.00
  volume of cell :      592.58
      direct lattice vectors                 reciprocal lattice vectors
     6.175677450  0.000000007 -0.000000000     0.161925555  0.093487821 -0.000000000
    -3.087838726  5.348290253  0.000000000    -0.000000000  0.186975641 -0.000000000
     0.000000000  0.000000000 17.941140272     0.000000000  0.000000000  0.055737817

  length of vectors
     6.175677450  6.175674589 17.941140272     0.186975555  0.186975641  0.055737817


 FORCES acting on ions
    electron-ion (+dipol)            ewald-force                    non-local-force                 convergence-correction
 -----------------------------------------------------------------------------------------------
   0.289E-03 -.221E-03 0.277E+01   -.111E-02 0.831E-03 -.284E+01   -.867E-18 0.000E+00 0.108E+00   -.220E-06 -.333E-06 -.426E-02
   -.443E-03 0.339E-03 -.303E+01   -.798E-04 0.724E-04 0.311E+01   0.000E+00 -.173E-17 -.986E-01   -.199E-06 0.294E-06 0.486E-03
   -.851E+02 -.110E+01 -.498E+03   0.867E+02 0.112E+01 0.501E+03   -.169E+01 -.173E-01 -.260E+01   -.299E-02 0.712E-04 -.416E-02
   0.435E+02 -.732E+02 -.498E+03   -.443E+02 0.746E+02 0.501E+03   0.862E+00 -.146E+01 -.260E+01   0.143E-02 -.262E-02 -.416E-02
   0.416E+02 0.743E+02 -.498E+03   -.424E+02 -.757E+02 0.501E+03   0.832E+00 0.148E+01 -.260E+01   0.155E-02 0.255E-02 -.416E-02
   -.416E+02 -.743E+02 0.498E+03   0.424E+02 0.757E+02 -.501E+03   -.830E+00 -.147E+01 0.260E+01   -.135E-02 -.249E-02 0.346E-02
   0.852E+02 0.110E+01 0.498E+03   -.868E+02 -.113E+01 -.501E+03   0.169E+01 0.166E-01 0.260E+01   0.283E-02 0.811E-04 0.346E-02
   -.435E+02 0.732E+02 0.498E+03   0.444E+02 -.746E+02 -.501E+03   -.859E+00 0.145E+01 0.260E+01   -.149E-02 0.241E-02 0.346E-02
 -----------------------------------------------------------------------------------------------
   0.614E-01 -.352E-01 0.545E-02   0.000E+00 -.142E-13 0.000E+00   0.333E-15 0.000E+00 0.280E-03   -.162E-05 0.677E-06 -.590E-02
 
 
 POSITION                                       TOTAL-FORCE (eV/Angst)
 -----------------------------------------------------------------------------------
     -3.08783      5.34829      6.49619        -0.000000     -0.000000      0.023336
      3.08783      1.78277      6.51648        -0.000000     -0.000000     -0.009668
      3.94662      3.56644      7.89181         0.016033      0.002801      0.003996
      1.11374      1.63465      7.89179        -0.010442      0.012485      0.003996
      4.20313      0.14722      7.89180        -0.005591     -0.015285      0.003996
      5.05952      1.63402      5.12135         0.007005      0.019646     -0.008552
      2.23080      3.56468      5.12136        -0.020516     -0.003757     -0.008552
      1.97317      0.14961      5.12132         0.013512     -0.015889     -0.008552
 -----------------------------------------------------------------------------------
    total drift:                                0.061361     -0.035167     -0.000170


--------------------------------------------------------------------------------------------------------



  FREE ENERGIE OF THE ION-ELECTRON SYSTEM (eV)
  ---------------------------------------------------
  free  energy   TOTEN  =       -30.97965274 eV

  energy  without entropy=      -30.97965274  energy(sigma->0) =      -30.97965274
 
 d Force = 0.7128636E-04[ 0.878E-05, 0.134E-03]  d Energy = 0.3936978E-03-0.322E-03
 d Force = 0.9895638E+00[ 0.989E+00, 0.990E+00]  d Ewald  = 0.3247055E+01-0.226E+01


--------------------------------------------------------------------------------------------------------


    POTLOK:  cpu time      0.0700: real time      0.0717


--------------------------------------------------------------------------------------------------------




--------------------------------------------------------------------------------------------------------


  
 reached required accuracy - stopping structural energy minimisation
     LOOP+:  cpu time     69.8505: real time     69.9876
    4ORBIT:  cpu time      0.0000: real time      0.0000

 total amount of memory used by VASP MPI-rank0  2831187. kBytes
=======================================================================

   base      :      30000. kBytes
   nonl-proj :     455077. kBytes
   fftplans  :      88392. kBytes
   grid      :     233496. kBytes
   one-center:        248. kBytes
   wavefun   :    2023974. kBytes
 
  
  
 General timing and accounting informations for this job:
 ========================================================
  
                  Total CPU time used (sec):      807.442
                            User time (sec):      803.863
                          System time (sec):        3.579
                         Elapsed time (sec):      809.564
  
                   Maximum memory used (kb):     4642080.
                   Average memory used (kb):          N/A
  
                          Minor page faults:      1276138
                          Major page faults:            0
                 Voluntary context switches:        16739
