 vasp.6.4.3 19Mar24 (build Jul 08 2025 21:20:34) complex                        
  
 executed on             LinuxIFC date 2025.10.30  12:08:03
 running   32 mpi-ranks, on    1 nodes
 distrk:  each k-point on   32 cores,    1 groups
 distr:  one band on NCORE=   1 cores,   32 groups


--------------------------------------------------------------------------------------------------------


 INCAR:
   ISTART = 1            (Read existing wavefunction, if there)
   LREAL = .FALSE.       (Projection operators: automatic)
   ENCUT = 500        (Cut-off energy for plane wave basis set, in eV)
   PREC = Accurate   (Precision level: Normal or Accurate, set Accurate when perform structure lattice relaxation calculation)
   LWAVE = .FALSE.        (Write WAVECAR or not)
   LCHARG = .FALSE.        (Write CHGCAR or not)
   ADDGRID = .TRUE.        (Increase grid, helps GGA convergence)
   LASPH = .TRUE.        (Give more accurate total energies and band structure calculations)
   PREC = Accurate      (Accurate strictly avoids any aliasing or wrap around errors)
   ISMEAR = 0            (Gaussian smearing, metals:1)
   SIGMA = 0.05         (Smearing value in eV, metals:0.2)
   NELM = 90           (Max electronic SCF steps)
   NELMIN = 6            (Min electronic SCF steps)
   EDIFF = 1E-06        (SCF energy convergence, in eV)
   NSW = 0          (Max ionic steps)
   IBRION = 2            (Algorithm: 0-MD, 1-Quasi-New, 2-CG)
   EDIFFG = -2E-02        (Ionic convergence, eV/AA)
   ISPIN = 2
   MAGMOM = 5.0 -5.0 0.0 0.0 0.0 0.0 0.0 0.0
   LDAU = .TRUE.
   LDAUTYPE = 2
   LDAUL = 2 -1
   LDAUU = 4.5 0.0
   LDAUJ = 0.9 0.0
   IVDW = 11

 POTCAR:    PAW_PBE Fe 06Sep2000                  
 POTCAR:    PAW_PBE Cl 06Sep2000                  
 -----------------------------------------------------------------------------
|                                                                             |
|           W    W    AA    RRRRR   N    N  II  N    N   GGGG   !!!           |
|           W    W   A  A   R    R  NN   N  II  NN   N  G    G  !!!           |
|           W    W  A    A  R    R  N N  N  II  N N  N  G       !!!           |
|           W WW W  AAAAAA  RRRRR   N  N N  II  N  N N  G  GGG   !            |
|           WW  WW  A    A  R   R   N   NN  II  N   NN  G    G                |
|           W    W  A    A  R    R  N    N  II  N    N   GGGG   !!!           |
|                                                                             |
|     For optimal performance we recommend to set                             |
|       NCORE = 2 up to number-of-cores-per-socket                            |
|     NCORE specifies how many cores store one orbital (NPAR=cpu/NCORE).      |
|     This setting can greatly improve the performance of VASP for DFT.       |
|     The default, NCORE=1 might be grossly inefficient on modern             |
|     multi-core architectures or massively parallel machines. Do your        |
|     own testing! More info at https://www.vasp.at/wiki/index.php/NCORE      |
|     Unfortunately you need to use the default for GW and RPA                |
|     calculations (for HF NCORE is supported but not extensively tested      |
|     yet).                                                                   |
|                                                                             |
 -----------------------------------------------------------------------------

 POTCAR:    PAW_PBE Fe 06Sep2000                  
   SHA256 =  cd5a22d9368cc8b5cc476bea79732366149640da08ac9009b0e1b7fc627eea28 Fe/POTCAR             
   COPYR  = (c) Copyright 06Sep2000 Georg Kresse                                                    
   COPYR  = This file is part of the software VASP. Any use, copying, and all other rights are regul
   COPYR  = If you do not have a valid VASP license, you may not use, copy or distribute this file. 
   VRHFIN =Fe:  d7 s1                                                                               
   LEXCH  = PE                                                                                      
   EATOM  =   594.3153 eV,   43.6809 Ry                                                             
                                                                                                    
   TITEL  = PAW_PBE Fe 06Sep2000                                                                    
   LULTRA =        F    use ultrasoft PP ?                                                          
   IUNSCR =        1    unscreen: 0-lin 1-nonlin 2-no                                               
   RPACOR =    2.000    partial core radius                                                         
   POMASS =   55.847; ZVAL   =    8.000    mass and valenz                                          
   RCORE  =    2.300    outmost cutoff radius                                                       
   RWIGS  =    2.460; RWIGS  =    1.302    wigner-seitz radius (au A)                               
   ENMAX  =  267.882; ENMIN  =  200.911 eV                                                          
   RCLOC  =    1.701    cutoff for local pot                                                        
   LCOR   =        T    correct aug charges                                                         
   LPAW   =        T    paw PP                                                                      
   EAUG   =  511.368                                                                                
   DEXC   =    0.000                                                                                
   RMAX   =    2.356    core radius for proj-oper                                                   
   RAUG   =    1.300    factor for augmentation sphere                                              
   RDEP   =    2.442    radius for radial grids                                                     
   RDEPT  =    1.890    core radius for aug-charge                                                  
                                                                                                    
   Atomic configuration                                                                             
    9 entries                                                                                       
     n  l   j            E        occ.                                                              
     1  0  0.50     -6993.8440   2.0000                                                             
     2  0  0.50      -814.6047   2.0000                                                             
     2  1  1.50      -693.3689   6.0000                                                             
     3  0  0.50       -89.4732   2.0000                                                             
     3  1  1.50       -55.6373   6.0000                                                             
     3  2  2.50        -3.8151   7.0000                                                             
     4  0  0.50        -4.2551   1.0000                                                             
     4  1  1.50        -3.4015   0.0000                                                             
     4  3  2.50        -1.3606   0.0000                                                             
   Description                                                                                      
     l       E           TYP  RCUT    TYP  RCUT                                                     
     2     -3.8151135     23  2.300                                                                 
     2     -5.1756961     23  2.300                                                                 
     0     -4.2550963     23  2.300                                                                 
     0      7.2035603     23  2.300                                                                 
     1     -2.7211652     23  2.300                                                                 
     1     18.4316424     23  2.300                                                                 
  local pseudopotential read in
  partial core-charges read in
  partial kinetic energy density read in
  atomic valenz-charges read in
  non local Contribution for L=           2  read in
    real space projection operators read in
  non local Contribution for L=           2  read in
    real space projection operators read in
  non local Contribution for L=           0  read in
    real space projection operators read in
  non local Contribution for L=           0  read in
    real space projection operators read in
  non local Contribution for L=           1  read in
    real space projection operators read in
  non local Contribution for L=           1  read in
    real space projection operators read in
    PAW grid and wavefunctions read in
 
   number of l-projection  operators is LMAX  =           6
   number of lm-projection operators is LMMAX =          18
 
 POTCAR:    PAW_PBE Cl 06Sep2000                  
   SHA256 =  9f1b6e6ed4247ac726a768b330d26d7667cc3c95a39ff49c1d064c2d9dcce931 Cl/POTCAR             
   COPYR  = (c) Copyright 06Sep2000 Georg Kresse                                                    
   COPYR  = This file is part of the software VASP. Any use, copying, and all other rights are regul
   COPYR  = If you do not have a valid VASP license, you may not use, copy or distribute this file. 
   VRHFIN =Cl: s2p5                                                                                 
   LEXCH  = PE                                                                                      
   EATOM  =   409.7259 eV,   30.1140 Ry                                                             
                                                                                                    
   TITEL  = PAW_PBE Cl 06Sep2000                                                                    
   LULTRA =        F    use ultrasoft PP ?                                                          
   IUNSCR =        1    unscreen: 0-lin 1-nonlin 2-no                                               
   RPACOR =    1.500    partial core radius                                                         
   POMASS =   35.453; ZVAL   =    7.000    mass and valenz                                          
   RCORE  =    1.900    outmost cutoff radius                                                       
   RWIGS  =    2.100; RWIGS  =    1.111    wigner-seitz radius (au A)                               
   ENMAX  =  262.472; ENMIN  =  196.854 eV                                                          
   ICORE  =        2    local potential                                                             
   LCOR   =        T    correct aug charges                                                         
   LPAW   =        T    paw PP                                                                      
   EAUG   =  356.192                                                                                
   DEXC   =    0.000                                                                                
   RMAX   =    1.945    core radius for proj-oper                                                   
   RAUG   =    1.300    factor for augmentation sphere                                              
   RDEP   =    2.020    radius for radial grids                                                     
   RDEPT  =    1.678    core radius for aug-charge                                                  
                                                                                                    
   Atomic configuration                                                                             
    6 entries                                                                                       
     n  l   j            E        occ.                                                              
     1  0  0.50     -2751.1850   2.0000                                                             
     2  0  0.50      -252.6861   2.0000                                                             
     2  1  1.50      -191.6157   6.0000                                                             
     3  0  0.50       -20.6916   2.0000                                                             
     3  1  0.50        -8.5949   5.0000                                                             
     3  2  1.50        -8.1635   0.0000                                                             
   Description                                                                                      
     l       E           TYP  RCUT    TYP  RCUT                                                     
     0    -20.6915656     23  1.900                                                                 
     0    -22.0521482     23  1.900                                                                 
     1     -8.5948577     23  1.900                                                                 
     1     -5.3847331     23  1.900                                                                 
     2     -8.1634956     23  1.900                                                                 
  local pseudopotential read in
  partial core-charges read in
  partial kinetic energy density read in
  atomic valenz-charges read in
  non local Contribution for L=           0  read in
    real space projection operators read in
  non local Contribution for L=           0  read in
    real space projection operators read in
  non local Contribution for L=           1  read in
    real space projection operators read in
  non local Contribution for L=           1  read in
    real space projection operators read in
    PAW grid and wavefunctions read in
 
   number of l-projection  operators is LMAX  =           4
   number of lm-projection operators is LMMAX =           8
 
  PAW_PBE Fe 06Sep2000                  :
 energy of atom  1       EATOM= -594.3153
 kinetic energy error for atom=    0.0026 (will be added to EATOM!!)
  PAW_PBE Cl 06Sep2000                  :
 energy of atom  2       EATOM= -409.7259
 kinetic energy error for atom=    0.0030 (will be added to EATOM!!)
 
 
 POSCAR: Fe Cl
  positions in direct lattice
  velocities in cartesian coordinates
 IVDW         = 11
 VDW_S6       =    1.0000
 VDW_S8       =    0.7220
 VDW_SR       =    1.2170
 VDW_RADIUS   =   50.2022 A
 VDW_CNRADIUS =   21.1671 A


 exchange-correlation table for PE
   RHO(1)=    0.500       N(1)  =     2000
   RHO(2)=  100.500       N(2)  =     4000
 


--------------------------------------------------------------------------------------------------------


 ion  position               nearest neighbor table
   1  1.000  0.000  0.226-   7 2.41   6 2.41   8 2.41   4 2.42   5 2.42   3 2.42
   2  0.667  0.333  0.226-   4 2.41   3 2.41   5 2.41   7 2.42   8 2.42   6 2.42
   3  0.973  0.667  0.274-   2 2.41   1 2.42
   4  0.333  0.307  0.274-   2 2.41   1 2.42
   5  0.693  0.027  0.274-   2 2.41   1 2.42
   6  0.973  0.306  0.178-   1 2.41   2 2.42
   7  0.694  0.667  0.178-   1 2.41   2 2.42
   8  0.333  0.027  0.178-   1 2.41   2 2.42
 
  LATTYP: Found a hexagonal cell.
 ALAT       =     6.1818200000
 C/A-ratio  =     4.6673795096
  
  Lattice vectors:
  
 A1 = (   6.1818200000,   0.0000000000,   0.0000000000)
 A2 = (  -3.0909100000,   5.3536100000,   0.0000000000)
 A3 = (   0.0000000000,   0.0000000000,  28.8529000000)


Analysis of symmetry for initial positions (statically):
=====================================================================
 Subroutine PRICEL returns:
 Original cell was already a primitive cell.
 

 Routine SETGRP: Setting up the symmetry group for a 
 hexagonal supercell.


 Subroutine GETGRP returns: Found  3 space group operations
 (whereof  3 operations were pure point group operations)
 out of a pool of 24 trial point group operations.


The static configuration has the point symmetry C_3 .


Analysis of symmetry for dynamics (positions and initial velocities):
=====================================================================
 Subroutine PRICEL returns:
 Original cell was already a primitive cell.
 

 Routine SETGRP: Setting up the symmetry group for a 
 hexagonal supercell.


 Subroutine GETGRP returns: Found  3 space group operations
 (whereof  3 operations were pure point group operations)
 out of a pool of 24 trial point group operations.


The dynamic configuration has the point symmetry C_3 .


Analysis of structural, dynamic, and magnetic symmetry:
=====================================================================
 Subroutine PRICEL returns:
 Original cell was already a primitive cell.
 

 Routine SETGRP: Setting up the symmetry group for a 
 hexagonal supercell.


 Subroutine GETGRP returns: Found  3 space group operations
 (whereof  3 operations were pure point group operations)
 out of a pool of 24 trial point group operations.


The overall configuration has the point symmetry C_3 .


 Subroutine INISYM returns: Found  3 space group operations
 (whereof  3 operations are pure point group operations),
 and found     1 'primitive' translations


----------------------------------------------------------------------------------------

                                     Primitive cell                                     

  volume of cell :     954.8883

  direct lattice vectors                    reciprocal lattice vectors
     6.181820000  0.000000000  0.000000000     0.161764658  0.093394924  0.000000000
    -3.090910000  5.353610000  0.000000000     0.000000000  0.186789848  0.000000000
     0.000000000  0.000000000 28.852900000     0.000000000  0.000000000  0.034658561

  length of vectors
     6.181820000  6.181817262 28.852900000     0.186789766  0.186789848  0.034658561

  position of ions in fractional coordinates (direct lattice)
     0.999998796  0.000000762  0.226071844
     0.666663675  0.333336746  0.226446071
     0.973090377  0.666545939  0.274017673
     0.333453804  0.306543777  0.274017376
     0.693455190  0.026910092  0.274017642
     0.972769931  0.305987531  0.178466438
     0.694011908  0.666784200  0.178467123
     0.333216319  0.027230954  0.178465834

  ion indices of the primitive-cell ions
   primitive index   ion index
                 1           1
                 2           2
                 3           3
                 4           4
                 5           5
                 6           6
                 7           7
                 8           8

----------------------------------------------------------------------------------------

 
 
 KPOINTS: K-Spacing Value to Generate K-Mesh: 0.04

Automatic generation of k-mesh.
 Grid dimensions read from file:
 generate k-points for:   14   14    1

 Generating k-lattice:

  Cartesian coordinates                     Fractional coordinates (reciprocal lattice)
     0.011554618  0.006671066  0.000000000     0.071428571 -0.000000000  0.000000000
     0.000000000  0.013342132  0.000000000     0.000000000  0.071428571  0.000000000
     0.000000000  0.000000000  0.034658561     0.000000000  0.000000000  1.000000000

  Length of vectors
     0.013342126  0.013342132  0.034658561

  Shift w.r.t. Gamma in fractional coordinates (k-lattice)
     0.000000000  0.000000000  0.000000000

 
 Subroutine IBZKPT returns following result:
 ===========================================
 
 Found     34 irreducible k-points:
 
 Following reciprocal coordinates:
            Coordinates               Weight
  0.000000  0.000000  0.000000      1.000000
  0.071429  0.000000  0.000000      6.000000
  0.142857  0.000000  0.000000      6.000000
  0.214286  0.000000  0.000000      6.000000
  0.285714  0.000000  0.000000      6.000000
  0.357143  0.000000  0.000000      6.000000
  0.428571  0.000000  0.000000      6.000000
  0.500000  0.000000  0.000000      3.000000
  0.071429  0.071429  0.000000      6.000000
  0.142857  0.071429  0.000000      6.000000
 -0.142857  0.214286  0.000000      6.000000
  0.214286  0.071429  0.000000      6.000000
 -0.214286  0.285714  0.000000      6.000000
  0.285714  0.071429  0.000000      6.000000
 -0.285714  0.357143  0.000000      6.000000
  0.357143  0.071429  0.000000      6.000000
 -0.357143  0.428571  0.000000      6.000000
  0.428571  0.071429  0.000000      6.000000
 -0.428571  0.500000  0.000000      6.000000
  0.142857  0.142857  0.000000      6.000000
  0.214286  0.142857  0.000000      6.000000
 -0.214286  0.357143  0.000000      6.000000
  0.285714  0.142857  0.000000      6.000000
 -0.285714  0.428571  0.000000      6.000000
  0.357143  0.142857  0.000000      6.000000
 -0.357143  0.500000  0.000000      6.000000
  0.428571  0.142857  0.000000      6.000000
  0.214286  0.214286  0.000000      6.000000
  0.285714  0.214286  0.000000      6.000000
 -0.285714  0.500000  0.000000      6.000000
  0.357143  0.214286  0.000000      6.000000
 -0.357143 -0.428571  0.000000      6.000000
  0.285714  0.285714  0.000000      6.000000
  0.357143  0.285714  0.000000      6.000000
 
 Following cartesian coordinates:
            Coordinates               Weight
  0.000000  0.000000  0.000000      1.000000
  0.011555  0.006671  0.000000      6.000000
  0.023109  0.013342  0.000000      6.000000
  0.034664  0.020013  0.000000      6.000000
  0.046218  0.026684  0.000000      6.000000
  0.057773  0.033355  0.000000      6.000000
  0.069328  0.040026  0.000000      6.000000
  0.080882  0.046697  0.000000      3.000000
  0.011555  0.020013  0.000000      6.000000
  0.023109  0.026684  0.000000      6.000000
 -0.023109  0.026684  0.000000      6.000000
  0.034664  0.033355  0.000000      6.000000
 -0.034664  0.033355  0.000000      6.000000
  0.046218  0.040026  0.000000      6.000000
 -0.046218  0.040026  0.000000      6.000000
  0.057773  0.046697  0.000000      6.000000
 -0.057773  0.046697  0.000000      6.000000
  0.069328  0.053369  0.000000      6.000000
 -0.069328  0.053369  0.000000      6.000000
  0.023109  0.040026  0.000000      6.000000
  0.034664  0.046697  0.000000      6.000000
 -0.034664  0.046697  0.000000      6.000000
  0.046218  0.053369  0.000000      6.000000
 -0.046218  0.053369  0.000000      6.000000
  0.057773  0.060040  0.000000      6.000000
 -0.057773  0.060040  0.000000      6.000000
  0.069328  0.066711  0.000000      6.000000
  0.034664  0.060040  0.000000      6.000000
  0.046218  0.066711  0.000000      6.000000
 -0.046218  0.066711  0.000000      6.000000
  0.057773  0.073382  0.000000      6.000000
 -0.057773 -0.113408  0.000000      6.000000
  0.046218  0.080053  0.000000      6.000000
  0.057773  0.086724  0.000000      6.000000
 


--------------------------------------------------------------------------------------------------------




 Dimension of arrays:
   k-points           NKPTS =     34   k-points in BZ     NKDIM =     34   number of bands    NBANDS=     64
   number of dos      NEDOS =    301   number of ions     NIONS =      8
   non local maximal  LDIM  =      6   non local SUM 2l+1 LMDIM =     18
   total plane-waves  NPLWV = 483840
   max r-space proj   IRMAX =      1   max aug-charges    IRDMAX= 144579
   dimension x,y,z NGX =    48 NGY =   48 NGZ =  210
   dimension x,y,z NGXF=    96 NGYF=   96 NGZF=  420
   support grid    NGXF=   192 NGYF=  192 NGZF=  840
   ions per type =               2   6
   NGX,Y,Z   is equivalent  to a cutoff of  12.91, 12.91, 12.10 a.u.
   NGXF,Y,Z  is equivalent  to a cutoff of  25.82, 25.82, 24.20 a.u.

 SYSTEM =  unknown system                          
 POSCAR =  Fe Cl                                   

 Startparameter for this run:
   NWRITE =      2    write-flag & timer
   PREC   = accura    normal or accurate (medium, high low for compatibility)
   ISTART =      0    job   : 0-new  1-cont  2-samecut
   ICHARG =      2    charge: 1-file 2-atom 10-const
   ISPIN  =      2    spin polarized calculation?
   LNONCOLLINEAR =      F non collinear calculations
   LSORBIT =      F    spin-orbit coupling
   INIWAV =      1    electr: 0-lowe 1-rand  2-diag
   LASPH  =      T    aspherical Exc in radial PAW
 Electronic Relaxation 1
   ENCUT  =  500.0 eV  36.75 Ry    6.06 a.u.  11.27 11.27 52.61*2*pi/ulx,y,z
   ENINI  =  500.0     initial cutoff
   ENAUG  =  511.4 eV  augmentation charge cutoff
   NELM   =     90;   NELMIN=  6; NELMDL=  0     # of ELM steps 
   EDIFF  = 0.1E-05   stopping-criterion for ELM
   LREAL  =      F    real-space projection
   NLSPLINE    = F    spline interpolate recip. space projectors
   LCOMPAT=      F    compatible to vasp.4.4
   GGA_COMPAT  = T    GGA compatible to vasp.4.4-vasp.4.6
   LMAXPAW     = -100 max onsite density
   LMAXMIX     =    2 max onsite mixed and CHGCAR
   VOSKOWN=      0    Vosko Wilk Nusair interpolation
   ROPT   =    0.00000   0.00000
 Ionic relaxation
   EDIFFG = -.2E-01   stopping-criterion for IOM
   NSW    =      0    number of steps for IOM
   NBLOCK =      1;   KBLOCK =      1    inner block; outer block 
   IBRION =     -1    ionic relax: 0-MD 1-quasi-New 2-CG
   NFREE  =      1    steps in history (QN), initial steepest desc. (CG)
   ISIF   =      2    stress and relaxation
   IWAVPR =     10    prediction:  0-non 1-charg 2-wave 3-comb
   ISYM   =      2    0-nonsym 1-usesym 2-fastsym
   LCORR  =      T    Harris-Foulkes like correction to forces

   POTIM  = 0.5000    time-step for ionic-motion
   TEIN   =    0.0    initial temperature
   TEBEG  =    0.0;   TEEND  =   0.0 temperature during run
   SMASS  =  -3.00    Nose mass-parameter (am)
   estimated Nose-frequenzy (Omega)   =  0.10E-29 period in steps = 0.13E+47 mass=  -0.873E-27a.u.
   SCALEE = 1.0000    scale energy and forces
   NPACO  =    256;   APACO  = 10.0  distance and # of slots for P.C.
   PSTRESS=    0.0 pullay stress

  Mass of Ions in am
   POMASS =  55.85 35.45
  Ionic Valenz
   ZVAL   =   8.00  7.00
  Atomic Wigner-Seitz radii
   RWIGS  =  -1.00 -1.00
  virtual crystal weights 
   VCA    =   1.00  1.00
   NELECT =      58.0000    total number of electrons
   NUPDOWN=      -1.0000    fix difference up-down

 DOS related values:
   EMIN   =  10.00;   EMAX   =-10.00  energy-range for DOS
   EFERMI =   0.00;   METHOD = LEGACY      
   ISMEAR =     0;   SIGMA  =   0.05  broadening in eV -4-tet -1-fermi 0-gaus

 Electronic relaxation 2 (details)
   IALGO  =     38    algorithm
   LDIAG  =      T    sub-space diagonalisation (order eigenvalues)
   LSUBROT=      F    optimize rotation matrix (better conditioning)
   TURBO    =      0    0=normal 1=particle mesh
   IRESTART =      0    0=no restart 2=restart with 2 vectors
   NREBOOT  =      0    no. of reboots
   NMIN     =      0    reboot dimension
   EREF     =   0.00    reference energy to select bands
   IMIX   =      4    mixing-type and parameters
     AMIX     =   0.40;   BMIX     =  1.00
     AMIX_MAG =   1.60;   BMIX_MAG =  1.00
     AMIN     =   0.10
     WC   =   100.;   INIMIX=   1;  MIXPRE=   1;  MAXMIX= -45

 Intra band minimization:
   WEIMIN = 0.0000     energy-eigenvalue tresh-hold
   EBREAK =  0.39E-08  absolut break condition
   DEPER  =   0.30     relativ break condition  

   TIME   =   0.40     timestep for ELM

  volume/ion in A,a.u.               =     119.36       805.49
  Fermi-wavevector in a.u.,A,eV,Ry     =   0.643527  1.216089  5.634537  0.414127
  Thomas-Fermi vector in A             =   1.710556
 
 Write flags
   LWAVE        =      F    write WAVECAR
   LDOWNSAMPLE  =      F    k-point downsampling of WAVECAR
   LCHARG       =      F    write CHGCAR
   LVTOT        =      F    write LOCPOT, total local potential
   LVHAR        =      F    write LOCPOT, Hartree potential only
   WRT_POTENTIAL= false  ! write potential to hdf5 file
   LELF         =      F    write electronic localiz. function (ELF)
   LORBIT       =      0    0 simple, 1 ext, 2 COOP (PROOUT), +10 PAW based schemes


 Dipole corrections
   LMONO      =      F    monopole corrections only (constant potential shift)
   LDIPOL     =      F    correct potential (dipole corrections)
   IDIPOL     =      0    1-x, 2-y, 3-z, 4-all directions 
   EPSILON    =  1.0000000 bulk dielectric constant
   LVACPOTAV  =      F  vacuum potentials using an averaging scheme for the charge density
   VACPOTFLAT =  0.1000000 required flatness to determine vacuum potential
 LDA+U is selected, type is set to LDAUTYPE =  2
   angular momentum for each species LDAUL =     2   -1
   U (eV)           for each species LDAUU =   4.5  0.0
   J (eV)           for each species LDAUJ =   0.9  0.0
 Exchange correlation treatment:
   GGA     = PE    functional components
   XC_C    = 1    coefficients multiplying the functional components
   LIBXC   =     F    Libxc                    
   VOSKOWN =     0    Vosko Wilk Nusair interpolation
   LHFCALC =     F    Hartree Fock is set to
   LHFONE  =     F    Hartree Fock one center treatment
   AEXX    =    0.0000 exact exchange contribution

 Parameters of functionals:
   PE:
     No parameter
 
 Van der Waals corrections
   IVDW    =    11    specifies the selected vdW correction

 Linear response parameters
   LEPSILON=     F    determine dielectric tensor
   LRPA    =     F    only Hartree local field effects (RPA)
   LNABLA  =     F    use nabla operator in PAW spheres
   LVEL    =     F    velocity operator in full k-point grid
   CSHIFT  =0.1000    complex shift for real part using Kramers Kronig
   OMEGAMAX=  -1.0    maximum frequency
   DEG_THRESHOLD= 0.2000000E-02 threshold for treating states as degnerate
   RTIME   =   -0.100 relaxation time in fs
  (WPLASMAI=    0.000 imaginary part of plasma frequency in eV, 0.658/RTIME)
   DFIELD  = 0.0000000 0.0000000 0.0000000 field for delta impulse in time
 
  Optional k-point grid parameters
   LKPOINTS_OPT  =     F    use optional k-point grid
   KPOINTS_OPT_MODE=     1    mode for optional k-point grid
 
 Orbital magnetization related:
   ORBITALMAG=     F  switch on orbital magnetization
   LCHIMAG   =     F  perturbation theory with respect to B field
   DQ        =  0.001000  dq finite difference perturbation B field
   LLRAUG    =     F  two centre corrections for induced B field
   LBONE     =     F  B-component reconstruction in AE one-centre
   LVGVCALC  =     T  calculate vGv susceptibility
   LVGVAPPL  =     F  apply vGv susceptibility instead of pGv for G=0

 Random number generation:
   RANDOM_GENERATOR = DEFAULT
   PCG_SEED         = not used


--------------------------------------------------------------------------------------------------------


 Static calculation
 charge density and potential will be updated during run
 spin polarized calculation
 Variant of blocked Davidson
 Davidson routine will perform the subspace rotation
 perform sub-space diagonalisation
    after iterative eigenvector-optimisation
 modified Broyden-mixing scheme, WC =      100.0
 initial mixing is a Kerker type mixing with AMIX =  0.4000 and BMIX =      1.0000
 Hartree-type preconditioning will be used
 using additional bands           35
 reciprocal scheme for non local part
 use partial core corrections
 calculate Harris-corrections to forces 
   (improved forces if not selfconsistent)
 use gradient corrections 
 use of overlap-Matrix (Vanderbilt PP)
 Gauss-broadening in eV      SIGMA  =   0.05


--------------------------------------------------------------------------------------------------------


  energy-cutoff  :      500.00
  volume of cell :      954.89
      direct lattice vectors                 reciprocal lattice vectors
     6.181820000  0.000000000  0.000000000     0.161764658  0.093394924  0.000000000
    -3.090910000  5.353610000  0.000000000     0.000000000  0.186789848  0.000000000
     0.000000000  0.000000000 28.852900000     0.000000000  0.000000000  0.034658561

  length of vectors
     6.181820000  6.181817262 28.852900000     0.186789766  0.186789848  0.034658561


 
 k-points in units of 2pi/SCALE and weight: K-Spacing Value to Generate K-Mesh: 0.04
   0.00000000  0.00000000  0.00000000       0.005
   0.01155462  0.00667107  0.00000000       0.031
   0.02310924  0.01334213  0.00000000       0.031
   0.03466386  0.02001320  0.00000000       0.031
   0.04621847  0.02668426  0.00000000       0.031
   0.05777309  0.03335533  0.00000000       0.031
   0.06932771  0.04002640  0.00000000       0.031
   0.08088233  0.04669746  0.00000000       0.015
   0.01155462  0.02001320  0.00000000       0.031
   0.02310924  0.02668426  0.00000000       0.031
  -0.02310924  0.02668426  0.00000000       0.031
   0.03466386  0.03335533  0.00000000       0.031
  -0.03466386  0.03335533  0.00000000       0.031
   0.04621847  0.04002640  0.00000000       0.031
  -0.04621847  0.04002640  0.00000000       0.031
   0.05777309  0.04669746  0.00000000       0.031
  -0.05777309  0.04669746  0.00000000       0.031
   0.06932771  0.05336853  0.00000000       0.031
  -0.06932771  0.05336853  0.00000000       0.031
   0.02310924  0.04002640  0.00000000       0.031
   0.03466386  0.04669746  0.00000000       0.031
  -0.03466386  0.04669746  0.00000000       0.031
   0.04621847  0.05336853  0.00000000       0.031
  -0.04621847  0.05336853  0.00000000       0.031
   0.05777309  0.06003959  0.00000000       0.031
  -0.05777309  0.06003959  0.00000000       0.031
   0.06932771  0.06671066  0.00000000       0.031
   0.03466386  0.06003959  0.00000000       0.031
   0.04621847  0.06671066  0.00000000       0.031
  -0.04621847  0.06671066  0.00000000       0.031
   0.05777309  0.07338173  0.00000000       0.031
  -0.05777309 -0.11340812  0.00000000       0.031
   0.04621847  0.08005279  0.00000000       0.031
   0.05777309  0.08672386  0.00000000       0.031
 
 k-points in reciprocal lattice and weights: K-Spacing Value to Generate K-Mesh: 0.04
   0.00000000  0.00000000  0.00000000       0.005
   0.07142857  0.00000000  0.00000000       0.031
   0.14285714  0.00000000  0.00000000       0.031
   0.21428571  0.00000000  0.00000000       0.031
   0.28571429  0.00000000  0.00000000       0.031
   0.35714286  0.00000000  0.00000000       0.031
   0.42857143  0.00000000  0.00000000       0.031
   0.50000000  0.00000000  0.00000000       0.015
   0.07142857  0.07142857  0.00000000       0.031
   0.14285714  0.07142857  0.00000000       0.031
  -0.14285714  0.21428571  0.00000000       0.031
   0.21428571  0.07142857  0.00000000       0.031
  -0.21428571  0.28571429  0.00000000       0.031
   0.28571429  0.07142857  0.00000000       0.031
  -0.28571429  0.35714286  0.00000000       0.031
   0.35714286  0.07142857  0.00000000       0.031
  -0.35714286  0.42857143  0.00000000       0.031
   0.42857143  0.07142857  0.00000000       0.031
  -0.42857143  0.50000000  0.00000000       0.031
   0.14285714  0.14285714  0.00000000       0.031
   0.21428571  0.14285714  0.00000000       0.031
  -0.21428571  0.35714286  0.00000000       0.031
   0.28571429  0.14285714  0.00000000       0.031
  -0.28571429  0.42857143  0.00000000       0.031
   0.35714286  0.14285714  0.00000000       0.031
  -0.35714286  0.50000000  0.00000000       0.031
   0.42857143  0.14285714  0.00000000       0.031
   0.21428571  0.21428571  0.00000000       0.031
   0.28571429  0.21428571  0.00000000       0.031
  -0.28571429  0.50000000  0.00000000       0.031
   0.35714286  0.21428571  0.00000000       0.031
  -0.35714286 -0.42857143  0.00000000       0.031
   0.28571429  0.28571429  0.00000000       0.031
   0.35714286  0.28571429  0.00000000       0.031
 
 position of ions in fractional coordinates (direct lattice) 
   0.99999880  0.00000076  0.22607184
   0.66666368  0.33333675  0.22644607
   0.97309038  0.66654594  0.27401767
   0.33345380  0.30654378  0.27401738
   0.69345519  0.02691009  0.27401764
   0.97276993  0.30598753  0.17846644
   0.69401191  0.66678420  0.17846712
   0.33321632  0.02723095  0.17846583
 
 position of ions in cartesian coordinates  (Angst):
   6.18181020  0.00000408  6.52282830
   3.09088096  1.78455494  6.53362583
   3.95523605  3.56842700  7.90620452
   1.11385217  1.64111583  7.90619595
   4.20363849  0.14406614  7.90620361
   5.06770869  1.63813791  5.14927428
   2.22928674  3.56970256  5.14929406
   1.97571488  0.14578391  5.14925686
 


--------------------------------------------------------------------------------------------------------


 k-point     1 :   0.0000 0.0000 0.0000  plane waves:   24345
 k-point     2 :   0.0714 0.0000 0.0000  plane waves:   24307
 k-point     3 :   0.1429 0.0000 0.0000  plane waves:   24257
 k-point     4 :   0.2143 0.0000 0.0000  plane waves:   24251
 k-point     5 :   0.2857 0.0000 0.0000  plane waves:   24248
 k-point     6 :   0.3571 0.0000 0.0000  plane waves:   24230
 k-point     7 :   0.4286 0.0000 0.0000  plane waves:   24210
 k-point     8 :   0.5000 0.0000 0.0000  plane waves:   24244
 k-point     9 :   0.0714 0.0714 0.0000  plane waves:   24251
 k-point    10 :   0.1429 0.0714 0.0000  plane waves:   24246
 k-point    11 :  -0.1429 0.2143 0.0000  plane waves:   24246
 k-point    12 :   0.2143 0.0714 0.0000  plane waves:   24223
 k-point    13 :  -0.2143 0.2857 0.0000  plane waves:   24223
 k-point    14 :   0.2857 0.0714 0.0000  plane waves:   24238
 k-point    15 :  -0.2857 0.3571 0.0000  plane waves:   24238
 k-point    16 :   0.3571 0.0714 0.0000  plane waves:   24216
 k-point    17 :  -0.3571 0.4286 0.0000  plane waves:   24216
 k-point    18 :   0.4286 0.0714 0.0000  plane waves:   24258
 k-point    19 :  -0.4286 0.5000 0.0000  plane waves:   24258
 k-point    20 :   0.1429 0.1429 0.0000  plane waves:   24215
 k-point    21 :   0.2143 0.1429 0.0000  plane waves:   24239
 k-point    22 :  -0.2143 0.3571 0.0000  plane waves:   24239
 k-point    23 :   0.2857 0.1429 0.0000  plane waves:   24241
 k-point    24 :  -0.2857 0.4286 0.0000  plane waves:   24241
 k-point    25 :   0.3571 0.1429 0.0000  plane waves:   24261
 k-point    26 :  -0.3571 0.5000 0.0000  plane waves:   24261
 k-point    27 :   0.4286 0.1429 0.0000  plane waves:   24264
 k-point    28 :   0.2143 0.2143 0.0000  plane waves:   24221
 k-point    29 :   0.2857 0.2143 0.0000  plane waves:   24224
 k-point    30 :  -0.2857 0.5000 0.0000  plane waves:   24224
 k-point    31 :   0.3571 0.2143 0.0000  plane waves:   24263
 k-point    32 :  -0.3571-0.4286 0.0000  plane waves:   24263
 k-point    33 :   0.2857 0.2857 0.0000  plane waves:   24239
 k-point    34 :   0.3571 0.2857 0.0000  plane waves:   24253

 maximum and minimum number of plane-waves per node :     24345    24210

 maximum number of plane-waves:     24345
 maximum index in each direction: 
   IXMAX=   11   IYMAX=   11   IZMAX=   52
   IXMIN=  -11   IYMIN=  -11   IZMIN=  -52


 serial   3D FFT for wavefunctions
 parallel 3D FFT for charge:
    minimum data exchange during FFTs selected (reduces bandwidth)


 total amount of memory used by VASP MPI-rank0   393134. kBytes
=======================================================================

   base      :      30000. kBytes
   nonl-proj :     241571. kBytes
   fftplans  :      19623. kBytes
   grid      :      48494. kBytes
   one-center:        248. kBytes
   wavefun   :      53198. kBytes
 
     INWAV:  cpu time      0.0001: real time      0.0004
 Broyden mixing: mesh for mixing (old mesh)
   NGX = 23   NGY = 23   NGZ =105
  (NGX  = 96   NGY  = 96   NGZ  =420)
  gives a total of  55545 points

 initial charge density was supplied:
 charge density of overlapping atoms calculated
 number of electron      58.0000000 magnetization      -0.0000000
 keeping initial charge density in first step


--------------------------------------------------------------------------------------------------------


 Maximum index for augmentation-charges         4183 (set IRDMAX)


--------------------------------------------------------------------------------------------------------


 First call to EWALD:  gamma=   0.180
 Maximum number of real-space cells 5x 5x 1
 Maximum number of reciprocal cells 2x 2x 7

    FEWALD:  cpu time      0.0014: real time      0.0015


--------------------------------------- Ionic step        1  -------------------------------------------




--------------------------------------- Iteration      1(   1)  ---------------------------------------


    POTLOK:  cpu time      0.2434: real time      0.2473
    SETDIJ:  cpu time      0.6202: real time      0.6267
     EDDAV:  cpu time     29.1323: real time     30.5445
       DOS:  cpu time      0.0283: real time      0.0386
    --------------------------------------------
      LOOP:  cpu time     30.0244: real time     31.4572

 eigenvalue-minimisations  :  8704
 total energy-change (2. order) : 0.4609660E+03  (-0.1725603E+04)
 number of electron      58.0000000 magnetization      -0.0000000
 augmentation part       58.0000000 magnetization      -0.0000000

 Free energy of the ion-electron system (eV)
  ---------------------------------------------------
  alpha Z        PSCENC =        21.49062660
  Ewald energy   TEWEN  =     13266.43990218
  -Hartree energ DENC   =    -16515.79820945
  -exchange      EXHF   =         0.00000000
  -V(xc)+E(xc)   XCENC  =       131.63618429
  PAW double counting   =      3055.14876058    -3050.95216630
  entropy T*S    EENTRO =        -0.00824610
  eigenvalues    EBANDS =       -93.95353402
  atomic energy  EATOM  =      3646.96265231
  Solvation  Ediel_sol  =         0.00000000
  ---------------------------------------------------
  free energy    TOTEN  =       460.96597010 eV

  energy without entropy =      460.97421620  energy(sigma->0) =      460.97009315


--------------------------------------------------------------------------------------------------------




--------------------------------------- Iteration      1(   2)  ---------------------------------------


     EDDAV:  cpu time     45.4408: real time     47.0544
       DOS:  cpu time      0.0089: real time      0.0306
    --------------------------------------------
      LOOP:  cpu time     45.4498: real time     47.0860

 eigenvalue-minimisations  : 15232
 total energy-change (2. order) :-0.4416051E+03  (-0.4099698E+03)
 number of electron      58.0000000 magnetization      -0.0000000
 augmentation part       58.0000000 magnetization      -0.0000000

 Free energy of the ion-electron system (eV)
  ---------------------------------------------------
  alpha Z        PSCENC =        21.49062660
  Ewald energy   TEWEN  =     13266.43990218
  -Hartree energ DENC   =    -16515.79820945
  -exchange      EXHF   =         0.00000000
  -V(xc)+E(xc)   XCENC  =       131.63618429
  PAW double counting   =      3055.14876058    -3050.95216630
  entropy T*S    EENTRO =        -0.00000000
  eigenvalues    EBANDS =      -535.56688823
  atomic energy  EATOM  =      3646.96265231
  Solvation  Ediel_sol  =         0.00000000
  ---------------------------------------------------
  free energy    TOTEN  =        19.36086199 eV

  energy without entropy =       19.36086199  energy(sigma->0) =       19.36086199


--------------------------------------------------------------------------------------------------------




--------------------------------------- Iteration      1(   3)  ---------------------------------------


     EDDAV:  cpu time     36.8685: real time     37.7618
       DOS:  cpu time      0.0110: real time      0.0280
    --------------------------------------------
      LOOP:  cpu time     36.8794: real time     37.7892

 eigenvalue-minimisations  : 11840
 total energy-change (2. order) :-0.5813581E+02  (-0.5770746E+02)
 number of electron      58.0000000 magnetization      -0.0000000
 augmentation part       58.0000000 magnetization      -0.0000000

 Free energy of the ion-electron system (eV)
  ---------------------------------------------------
  alpha Z        PSCENC =        21.49062660
  Ewald energy   TEWEN  =     13266.43990218
  -Hartree energ DENC   =    -16515.79820945
  -exchange      EXHF   =         0.00000000
  -V(xc)+E(xc)   XCENC  =       131.63618429
  PAW double counting   =      3055.14876058    -3050.95216630
  entropy T*S    EENTRO =        -0.00000000
  eigenvalues    EBANDS =      -593.70270214
  atomic energy  EATOM  =      3646.96265231
  Solvation  Ediel_sol  =         0.00000000
  ---------------------------------------------------
  free energy    TOTEN  =       -38.77495192 eV

  energy without entropy =      -38.77495192  energy(sigma->0) =      -38.77495192


--------------------------------------------------------------------------------------------------------




--------------------------------------- Iteration      1(   4)  ---------------------------------------


     EDDAV:  cpu time     38.1159: real time     39.7138
       DOS:  cpu time      0.0052: real time      0.0221
    --------------------------------------------
      LOOP:  cpu time     38.1211: real time     39.7360

 eigenvalue-minimisations  : 12256
 total energy-change (2. order) :-0.1472534E+01  (-0.1471642E+01)
 number of electron      58.0000000 magnetization      -0.0000000
 augmentation part       58.0000000 magnetization      -0.0000000

 Free energy of the ion-electron system (eV)
  ---------------------------------------------------
  alpha Z        PSCENC =        21.49062660
  Ewald energy   TEWEN  =     13266.43990218
  -Hartree energ DENC   =    -16515.79820945
  -exchange      EXHF   =         0.00000000
  -V(xc)+E(xc)   XCENC  =       131.63618429
  PAW double counting   =      3055.14876058    -3050.95216630
  entropy T*S    EENTRO =        -0.00000000
  eigenvalues    EBANDS =      -595.17523593
  atomic energy  EATOM  =      3646.96265231
  Solvation  Ediel_sol  =         0.00000000
  ---------------------------------------------------
  free energy    TOTEN  =       -40.24748572 eV

  energy without entropy =      -40.24748572  energy(sigma->0) =      -40.24748572


--------------------------------------------------------------------------------------------------------




--------------------------------------- Iteration      1(   5)  ---------------------------------------


     EDDAV:  cpu time     39.1431: real time     40.4494
       DOS:  cpu time      0.0084: real time      0.0366
    CHARGE:  cpu time      1.8341: real time      1.8834
    MIXING:  cpu time      0.0183: real time      0.0276
    --------------------------------------------
      LOOP:  cpu time     41.0040: real time     42.3974

 eigenvalue-minimisations  : 12704
 total energy-change (2. order) :-0.4331690E-01  (-0.4331276E-01)
 number of electron      58.0000000 magnetization       0.0000000
 augmentation part        0.7542371 magnetization       0.0000824

 Broyden mixing:
  rms(total) = 0.23073E+01    rms(broyden)= 0.23073E+01
  rms(prec ) = 0.23912E+01
  weight for this iteration     100.00

 Free energy of the ion-electron system (eV)
  ---------------------------------------------------
  alpha Z        PSCENC =        21.49062660
  Ewald energy   TEWEN  =     13266.43990218
  -Hartree energ DENC   =    -16515.79820945
  -exchange      EXHF   =         0.00000000
  -V(xc)+E(xc)   XCENC  =       131.63618429
  PAW double counting   =      3055.14876058    -3050.95216630
  entropy T*S    EENTRO =        -0.00000000
  eigenvalues    EBANDS =      -595.21855284
  atomic energy  EATOM  =      3646.96265231
  Solvation  Ediel_sol  =         0.00000000
  ---------------------------------------------------
  free energy    TOTEN  =       -40.29080262 eV

  energy without entropy =      -40.29080262  energy(sigma->0) =      -40.29080262


--------------------------------------------------------------------------------------------------------




--------------------------------------- Iteration      1(   6)  ---------------------------------------


    POTLOK:  cpu time      0.2333: real time      0.2600
    SETDIJ:  cpu time      0.5954: real time      0.6026
     EDDAV:  cpu time     33.1343: real time     33.9501
       DOS:  cpu time      0.0090: real time      0.0300
    CHARGE:  cpu time      1.8230: real time      1.8711
    MIXING:  cpu time      0.0170: real time      0.0990
    --------------------------------------------
      LOOP:  cpu time     35.8122: real time     36.8126

 eigenvalue-minimisations  : 10432
 total energy-change (2. order) : 0.9420219E+01  (-0.5560207E+01)
 number of electron      58.0000000 magnetization       0.0000000
 augmentation part        3.6932949 magnetization       0.0001518

 Broyden mixing:
  rms(total) = 0.42776E+01    rms(broyden)= 0.42776E+01
  rms(prec ) = 0.42908E+01
  weight for this iteration     100.00

 eigenvalues of (default mixing * dielectric matrix)
  average eigenvalue GAMMA=   0.0269
  0.0269

 Free energy of the ion-electron system (eV)
  ---------------------------------------------------
  alpha Z        PSCENC =        21.49062660
  Ewald energy   TEWEN  =     13266.43990218
  -Hartree energ DENC   =    -16455.66960485
  -exchange      EXHF   =         0.00000000
  -V(xc)+E(xc)   XCENC  =       134.76978792
  PAW double counting   =      3344.06547246    -3332.23221488
  entropy T*S    EENTRO =        -0.00000000
  eigenvalues    EBANDS =      -656.69720521
  atomic energy  EATOM  =      3646.96265231
  Solvation  Ediel_sol  =         0.00000000
  ---------------------------------------------------
  free energy    TOTEN  =       -30.87058346 eV

  energy without entropy =      -30.87058346  energy(sigma->0) =      -30.87058346


--------------------------------------------------------------------------------------------------------




--------------------------------------- Iteration      1(   7)  ---------------------------------------


    POTLOK:  cpu time      0.2983: real time      0.3265
    SETDIJ:  cpu time      0.6098: real time      0.6229
     EDDAV:  cpu time     36.2228: real time     37.8086
       DOS:  cpu time      0.0047: real time      0.0173
    CHARGE:  cpu time      1.8126: real time      1.8750
    MIXING:  cpu time      0.0224: real time      0.0434
    --------------------------------------------
      LOOP:  cpu time     38.9704: real time     40.6928

 eigenvalue-minimisations  : 11552
 total energy-change (2. order) : 0.2000540E+00  (-0.5193650E+00)
 number of electron      58.0000000 magnetization       0.0000000
 augmentation part        3.1685272 magnetization       0.0000235

 Broyden mixing:
  rms(total) = 0.30681E+01    rms(broyden)= 0.30681E+01
  rms(prec ) = 0.30738E+01
  weight for this iteration     100.00

 eigenvalues of (default mixing * dielectric matrix)
  average eigenvalue GAMMA=   0.6468
  0.9019  0.3916

 Free energy of the ion-electron system (eV)
  ---------------------------------------------------
  alpha Z        PSCENC =        21.49062660
  Ewald energy   TEWEN  =     13266.43990218
  -Hartree energ DENC   =    -16460.54329465
  -exchange      EXHF   =         0.00000000
  -V(xc)+E(xc)   XCENC  =       134.05366371
  PAW double counting   =      3407.92275850    -3398.38564434
  entropy T*S    EENTRO =        -0.00000000
  eigenvalues    EBANDS =      -648.61119377
  atomic energy  EATOM  =      3646.96265231
  Solvation  Ediel_sol  =         0.00000000
  ---------------------------------------------------
  free energy    TOTEN  =       -30.67052945 eV

  energy without entropy =      -30.67052945  energy(sigma->0) =      -30.67052945


--------------------------------------------------------------------------------------------------------




--------------------------------------- Iteration      1(   8)  ---------------------------------------


    POTLOK:  cpu time      0.2272: real time      0.2317
    SETDIJ:  cpu time      0.5996: real time      0.6032
     EDDAV:  cpu time     41.0956: real time     42.8060
       DOS:  cpu time      0.0075: real time      0.0338
    CHARGE:  cpu time      1.8214: real time      1.8609
    MIXING:  cpu time      0.0263: real time      0.0621
    --------------------------------------------
      LOOP:  cpu time     43.7778: real time     45.5983

 eigenvalue-minimisations  : 13536
 total energy-change (2. order) : 0.1753714E-01  (-0.8262892E-01)
 number of electron      58.0000000 magnetization       0.0000000
 augmentation part        3.2299562 magnetization       0.0006094

 Broyden mixing:
  rms(total) = 0.23254E+01    rms(broyden)= 0.23254E+01
  rms(prec ) = 0.23342E+01
  weight for this iteration     100.00

 eigenvalues of (default mixing * dielectric matrix)
  average eigenvalue GAMMA=   0.9101
  0.3204  1.2050  1.2050

 Free energy of the ion-electron system (eV)
  ---------------------------------------------------
  alpha Z        PSCENC =        21.49062660
  Ewald energy   TEWEN  =     13266.43990218
  -Hartree energ DENC   =    -16450.88491825
  -exchange      EXHF   =         0.00000000
  -V(xc)+E(xc)   XCENC  =       134.98799973
  PAW double counting   =      3850.93816133    -3845.75334662
  entropy T*S    EENTRO =        -0.00000000
  eigenvalues    EBANDS =      -654.83406959
  atomic energy  EATOM  =      3646.96265231
  Solvation  Ediel_sol  =         0.00000000
  ---------------------------------------------------
  free energy    TOTEN  =       -30.65299231 eV

  energy without entropy =      -30.65299231  energy(sigma->0) =      -30.65299231


--------------------------------------------------------------------------------------------------------




--------------------------------------- Iteration      1(   9)  ---------------------------------------


    POTLOK:  cpu time      0.2183: real time      0.2491
    SETDIJ:  cpu time      0.5840: real time      0.5916
     EDDAV:  cpu time     34.6293: real time     36.2284
       DOS:  cpu time      0.0383: real time      0.0431
    CHARGE:  cpu time      1.8049: real time      1.8268
    MIXING:  cpu time      0.0288: real time      0.0347
    --------------------------------------------
      LOOP:  cpu time     37.3035: real time     38.9730

 eigenvalue-minimisations  : 10944
 total energy-change (2. order) : 0.4414819E+00  (-0.1959042E+00)
 number of electron      58.0000000 magnetization       0.0000000
 augmentation part        2.7147158 magnetization      -0.0004043

 Broyden mixing:
  rms(total) = 0.63890E+00    rms(broyden)= 0.63890E+00
  rms(prec ) = 0.64179E+00
  weight for this iteration     100.00

 eigenvalues of (default mixing * dielectric matrix)
  average eigenvalue GAMMA=   1.0607
  1.8598  1.3389  0.3287  0.7154

 Free energy of the ion-electron system (eV)
  ---------------------------------------------------
  alpha Z        PSCENC =        21.49062660
  Ewald energy   TEWEN  =     13266.43990218
  -Hartree energ DENC   =    -16452.51720782
  -exchange      EXHF   =         0.00000000
  -V(xc)+E(xc)   XCENC  =       133.16499781
  PAW double counting   =      4206.09439025    -4206.31521276
  entropy T*S    EENTRO =        -0.00000000
  eigenvalues    EBANDS =      -645.53165901
  atomic energy  EATOM  =      3646.96265231
  Solvation  Ediel_sol  =         0.00000000
  ---------------------------------------------------
  free energy    TOTEN  =       -30.21151044 eV

  energy without entropy =      -30.21151044  energy(sigma->0) =      -30.21151044


--------------------------------------------------------------------------------------------------------




--------------------------------------- Iteration      1(  10)  ---------------------------------------


    POTLOK:  cpu time      0.2334: real time      0.2416
    SETDIJ:  cpu time      0.5938: real time      0.5963
     EDDAV:  cpu time     37.0794: real time     38.3260
       DOS:  cpu time      0.0056: real time      0.0125
    CHARGE:  cpu time      1.8164: real time      1.8466
    MIXING:  cpu time      0.0295: real time      0.0402
    --------------------------------------------
      LOOP:  cpu time     39.7582: real time     41.0636

 eigenvalue-minimisations  : 11840
 total energy-change (2. order) : 0.1518898E-01  (-0.2414180E-01)
 number of electron      58.0000000 magnetization       0.0000000
 augmentation part        2.5700636 magnetization       0.0001671

 Broyden mixing:
  rms(total) = 0.22895E+00    rms(broyden)= 0.22894E+00
  rms(prec ) = 0.23021E+00
  weight for this iteration     100.00

 eigenvalues of (default mixing * dielectric matrix)
  average eigenvalue GAMMA=   1.1310
  2.3078  1.1874  1.1874  0.3286  0.6438

 Free energy of the ion-electron system (eV)
  ---------------------------------------------------
  alpha Z        PSCENC =        21.49062660
  Ewald energy   TEWEN  =     13266.43990218
  -Hartree energ DENC   =    -16455.18600167
  -exchange      EXHF   =         0.00000000
  -V(xc)+E(xc)   XCENC  =       133.23923159
  PAW double counting   =      4317.24632890    -4319.80094859
  entropy T*S    EENTRO =        -0.00000000
  eigenvalues    EBANDS =      -640.58811278
  atomic energy  EATOM  =      3646.96265231
  Solvation  Ediel_sol  =         0.00000000
  ---------------------------------------------------
  free energy    TOTEN  =       -30.19632145 eV

  energy without entropy =      -30.19632145  energy(sigma->0) =      -30.19632145


--------------------------------------------------------------------------------------------------------




--------------------------------------- Iteration      1(  11)  ---------------------------------------


    POTLOK:  cpu time      0.2288: real time      0.2380
    SETDIJ:  cpu time      0.6053: real time      0.6098
     EDDAV:  cpu time     42.2599: real time     43.0828
       DOS:  cpu time      0.0338: real time      0.0792
    CHARGE:  cpu time      1.7802: real time      1.8150
    MIXING:  cpu time      0.0155: real time      0.0372
    --------------------------------------------
      LOOP:  cpu time     44.9236: real time     45.8624

 eigenvalue-minimisations  : 14048
 total energy-change (2. order) :-0.2529715E-03  (-0.1152412E-01)
 number of electron      58.0000000 magnetization       0.0000000
 augmentation part        2.4855238 magnetization       0.0000306

 Broyden mixing:
  rms(total) = 0.92325E-01    rms(broyden)= 0.92312E-01
  rms(prec ) = 0.92940E-01
  weight for this iteration     100.00

 eigenvalues of (default mixing * dielectric matrix)
  average eigenvalue GAMMA=   1.2524
  2.7558  1.5021  1.5021  0.3283  0.7598  0.6660

 Free energy of the ion-electron system (eV)
  ---------------------------------------------------
  alpha Z        PSCENC =        21.49062660
  Ewald energy   TEWEN  =     13266.43990218
  -Hartree energ DENC   =    -16458.29979534
  -exchange      EXHF   =         0.00000000
  -V(xc)+E(xc)   XCENC  =       133.30063980
  PAW double counting   =      4317.59211284    -4320.50218477
  entropy T*S    EENTRO =        -0.00000000
  eigenvalues    EBANDS =      -637.18052805
  atomic energy  EATOM  =      3646.96265231
  Solvation  Ediel_sol  =         0.00000000
  ---------------------------------------------------
  free energy    TOTEN  =       -30.19657443 eV

  energy without entropy =      -30.19657443  energy(sigma->0) =      -30.19657443


--------------------------------------------------------------------------------------------------------




--------------------------------------- Iteration      1(  12)  ---------------------------------------


    POTLOK:  cpu time      0.2416: real time      0.2867
    SETDIJ:  cpu time      0.6012: real time      0.6098
     EDDAV:  cpu time     40.4827: real time     41.4385
       DOS:  cpu time      0.0123: real time      0.0225
    CHARGE:  cpu time      1.8706: real time      1.9080
    MIXING:  cpu time      0.0123: real time      0.0652
    --------------------------------------------
      LOOP:  cpu time     43.2208: real time     44.3304

 eigenvalue-minimisations  : 13248
 total energy-change (2. order) :-0.3678302E-02  (-0.3462715E-02)
 number of electron      58.0000000 magnetization       0.0000000
 augmentation part        2.5342497 magnetization      -0.0000796

 Broyden mixing:
  rms(total) = 0.42371E-01    rms(broyden)= 0.42370E-01
  rms(prec ) = 0.43259E-01
  weight for this iteration     100.00

 eigenvalues of (default mixing * dielectric matrix)
  average eigenvalue GAMMA=   1.1707
  2.5092  1.5199  1.5199  0.3282  0.9808  0.7172  0.6196

 Free energy of the ion-electron system (eV)
  ---------------------------------------------------
  alpha Z        PSCENC =        21.49062660
  Ewald energy   TEWEN  =     13266.43990218
  -Hartree energ DENC   =    -16458.79801707
  -exchange      EXHF   =         0.00000000
  -V(xc)+E(xc)   XCENC  =       133.32430326
  PAW double counting   =      4327.13436317    -4330.15953791
  entropy T*S    EENTRO =        -0.00000000
  eigenvalues    EBANDS =      -636.59454528
  atomic energy  EATOM  =      3646.96265231
  Solvation  Ediel_sol  =         0.00000000
  ---------------------------------------------------
  free energy    TOTEN  =       -30.20025273 eV

  energy without entropy =      -30.20025273  energy(sigma->0) =      -30.20025273


--------------------------------------------------------------------------------------------------------




--------------------------------------- Iteration      1(  13)  ---------------------------------------


    POTLOK:  cpu time      0.2531: real time      0.2805
    SETDIJ:  cpu time      0.6058: real time      0.6175
     EDDAV:  cpu time     38.5657: real time     39.3078
       DOS:  cpu time      0.0048: real time      0.0118
    CHARGE:  cpu time      1.8560: real time      1.8781
    MIXING:  cpu time      0.0207: real time      0.0297
    --------------------------------------------
      LOOP:  cpu time     41.3061: real time     42.1255

 eigenvalue-minimisations  : 12544
 total energy-change (2. order) : 0.1000529E-02  (-0.5213583E-03)
 number of electron      58.0000000 magnetization       0.0000000
 augmentation part        2.5203463 magnetization       0.0000404

 Broyden mixing:
  rms(total) = 0.19697E-01    rms(broyden)= 0.19697E-01
  rms(prec ) = 0.19869E-01
  weight for this iteration     100.00

 eigenvalues of (default mixing * dielectric matrix)
  average eigenvalue GAMMA=   1.1272
  2.5623  1.5356  1.5356  0.3282  0.9698  0.8246  0.6308  0.6308

 Free energy of the ion-electron system (eV)
  ---------------------------------------------------
  alpha Z        PSCENC =        21.49062660
  Ewald energy   TEWEN  =     13266.43990218
  -Hartree energ DENC   =    -16458.60737584
  -exchange      EXHF   =         0.00000000
  -V(xc)+E(xc)   XCENC  =       133.25944794
  PAW double counting   =      4319.18971858    -4322.12365094
  entropy T*S    EENTRO =        -0.00000000
  eigenvalues    EBANDS =      -636.81057303
  atomic energy  EATOM  =      3646.96265231
  Solvation  Ediel_sol  =         0.00000000
  ---------------------------------------------------
  free energy    TOTEN  =       -30.19925220 eV

  energy without entropy =      -30.19925220  energy(sigma->0) =      -30.19925220


--------------------------------------------------------------------------------------------------------




--------------------------------------- Iteration      1(  14)  ---------------------------------------


    POTLOK:  cpu time      0.2524: real time      0.2664
    SETDIJ:  cpu time      0.5964: real time      0.6050
     EDDAV:  cpu time     37.5566: real time     38.3173
       DOS:  cpu time      0.0135: real time      0.0201
    CHARGE:  cpu time      1.8669: real time      1.8926
    MIXING:  cpu time      0.0230: real time      0.0337
    --------------------------------------------
      LOOP:  cpu time     40.3090: real time     41.1390

 eigenvalue-minimisations  : 12096
 total energy-change (2. order) :-0.5538705E-03  (-0.4561813E-04)
 number of electron      58.0000000 magnetization       0.0000000
 augmentation part        2.5130288 magnetization       0.0000163

 Broyden mixing:
  rms(total) = 0.11624E-01    rms(broyden)= 0.11624E-01
  rms(prec ) = 0.11683E-01
  weight for this iteration     100.00

 eigenvalues of (default mixing * dielectric matrix)
  average eigenvalue GAMMA=   1.1926
  2.8336  1.6561  1.6561  0.3282  1.0917  1.0917  0.7258  0.7258  0.6242

 Free energy of the ion-electron system (eV)
  ---------------------------------------------------
  alpha Z        PSCENC =        21.49062660
  Ewald energy   TEWEN  =     13266.43990218
  -Hartree energ DENC   =    -16458.67810439
  -exchange      EXHF   =         0.00000000
  -V(xc)+E(xc)   XCENC  =       133.25296009
  PAW double counting   =      4318.06444118    -4321.00385096
  entropy T*S    EENTRO =        -0.00000000
  eigenvalues    EBANDS =      -636.72843309
  atomic energy  EATOM  =      3646.96265231
  Solvation  Ediel_sol  =         0.00000000
  ---------------------------------------------------
  free energy    TOTEN  =       -30.19980607 eV

  energy without entropy =      -30.19980607  energy(sigma->0) =      -30.19980607


--------------------------------------------------------------------------------------------------------




--------------------------------------- Iteration      1(  15)  ---------------------------------------


    POTLOK:  cpu time      0.2222: real time      0.2425
    SETDIJ:  cpu time      0.6061: real time      0.6134
     EDDAV:  cpu time     41.9888: real time     42.9290
       DOS:  cpu time      0.0046: real time      0.0172
    CHARGE:  cpu time      2.0623: real time      2.1028
    MIXING:  cpu time      0.0218: real time      0.0565
    --------------------------------------------
      LOOP:  cpu time     44.9054: real time     45.9575

 eigenvalue-minimisations  : 13824
 total energy-change (2. order) :-0.3143389E-03  (-0.2673218E-04)
 number of electron      58.0000000 magnetization       0.0000000
 augmentation part        2.5148990 magnetization      -0.0000244

 Broyden mixing:
  rms(total) = 0.53125E-02    rms(broyden)= 0.53121E-02
  rms(prec ) = 0.53645E-02
  weight for this iteration     100.00

 eigenvalues of (default mixing * dielectric matrix)
  average eigenvalue GAMMA=   1.2534
  2.9634  2.1205  1.5614  1.5614  0.3282  0.9754  0.9754  0.7144  0.7144  0.6190

 Free energy of the ion-electron system (eV)
  ---------------------------------------------------
  alpha Z        PSCENC =        21.49062660
  Ewald energy   TEWEN  =     13266.43990218
  -Hartree energ DENC   =    -16458.61410803
  -exchange      EXHF   =         0.00000000
  -V(xc)+E(xc)   XCENC  =       133.25792938
  PAW double counting   =      4318.40288320    -4321.36400322
  entropy T*S    EENTRO =        -0.00000000
  eigenvalues    EBANDS =      -636.77600284
  atomic energy  EATOM  =      3646.96265231
  Solvation  Ediel_sol  =         0.00000000
  ---------------------------------------------------
  free energy    TOTEN  =       -30.20012041 eV

  energy without entropy =      -30.20012041  energy(sigma->0) =      -30.20012041


--------------------------------------------------------------------------------------------------------




--------------------------------------- Iteration      1(  16)  ---------------------------------------


    POTLOK:  cpu time      0.2919: real time      0.3179
    SETDIJ:  cpu time      0.6045: real time      0.6121
     EDDAV:  cpu time     37.5709: real time     38.5768
       DOS:  cpu time      0.0062: real time      0.0214
    CHARGE:  cpu time      1.8196: real time      1.8571
    MIXING:  cpu time      0.0173: real time      0.0368
    --------------------------------------------
      LOOP:  cpu time     40.3104: real time     41.4221

 eigenvalue-minimisations  : 12416
 total energy-change (2. order) :-0.1030313E-03  (-0.2289974E-05)
 number of electron      58.0000000 magnetization       0.0000000
 augmentation part        2.5131774 magnetization       0.0000327

 Broyden mixing:
  rms(total) = 0.18851E-02    rms(broyden)= 0.18847E-02
  rms(prec ) = 0.19154E-02
  weight for this iteration     100.00

 eigenvalues of (default mixing * dielectric matrix)
  average eigenvalue GAMMA=   1.2602
  3.0281  2.3885  1.6286  1.6286  0.3282  1.0405  1.0405  0.6203  0.7211  0.7211
  0.7168

 Free energy of the ion-electron system (eV)
  ---------------------------------------------------
  alpha Z        PSCENC =        21.49062660
  Ewald energy   TEWEN  =     13266.43990218
  -Hartree energ DENC   =    -16458.51424678
  -exchange      EXHF   =         0.00000000
  -V(xc)+E(xc)   XCENC  =       133.24979190
  PAW double counting   =      4316.45111246    -4319.40959671
  entropy T*S    EENTRO =        -0.00000000
  eigenvalues    EBANDS =      -636.87046541
  atomic energy  EATOM  =      3646.96265231
  Solvation  Ediel_sol  =         0.00000000
  ---------------------------------------------------
  free energy    TOTEN  =       -30.20022344 eV

  energy without entropy =      -30.20022344  energy(sigma->0) =      -30.20022344


--------------------------------------------------------------------------------------------------------




--------------------------------------- Iteration      1(  17)  ---------------------------------------


    POTLOK:  cpu time      0.2512: real time      0.2754
    SETDIJ:  cpu time      0.5961: real time      0.6048
     EDDAV:  cpu time     41.6590: real time     42.8487
       DOS:  cpu time      0.0042: real time      0.0054
    CHARGE:  cpu time      2.0887: real time      2.1212
    MIXING:  cpu time      0.0153: real time      0.0318
    --------------------------------------------
      LOOP:  cpu time     44.6146: real time     45.8875

 eigenvalue-minimisations  : 13760
 total energy-change (2. order) :-0.5357549E-04  (-0.7328417E-06)
 number of electron      58.0000000 magnetization       0.0000000
 augmentation part        2.5128790 magnetization      -0.0000035

 Broyden mixing:
  rms(total) = 0.77302E-03    rms(broyden)= 0.77277E-03
  rms(prec ) = 0.82452E-03
  weight for this iteration     100.00

 eigenvalues of (default mixing * dielectric matrix)
  average eigenvalue GAMMA=   1.2328
  3.1767  2.3901  1.5161  1.5161  1.4501  0.3282  0.8565  0.8565  0.7329  0.7329
  0.6185  0.6185

 Free energy of the ion-electron system (eV)
  ---------------------------------------------------
  alpha Z        PSCENC =        21.49062660
  Ewald energy   TEWEN  =     13266.43990218
  -Hartree energ DENC   =    -16458.44662314
  -exchange      EXHF   =         0.00000000
  -V(xc)+E(xc)   XCENC  =       133.24945167
  PAW double counting   =      4316.15442666    -4319.11770808
  entropy T*S    EENTRO =        -0.00000000
  eigenvalues    EBANDS =      -636.93300521
  atomic energy  EATOM  =      3646.96265231
  Solvation  Ediel_sol  =         0.00000000
  ---------------------------------------------------
  free energy    TOTEN  =       -30.20027702 eV

  energy without entropy =      -30.20027702  energy(sigma->0) =      -30.20027702


--------------------------------------------------------------------------------------------------------




--------------------------------------- Iteration      1(  18)  ---------------------------------------


    POTLOK:  cpu time      0.2417: real time      0.2684
    SETDIJ:  cpu time      0.5961: real time      0.6047
     EDDAV:  cpu time     36.7661: real time     37.6951
       DOS:  cpu time      0.0074: real time      0.0222
    CHARGE:  cpu time      1.7516: real time      1.7838
    MIXING:  cpu time      0.0273: real time      0.0409
    --------------------------------------------
      LOOP:  cpu time     39.3902: real time     40.4151

 eigenvalue-minimisations  : 12096
 total energy-change (2. order) :-0.4127031E-04  (-0.2901413E-06)
 number of electron      58.0000000 magnetization       0.0000000
 augmentation part        2.5131351 magnetization       0.0000017

 Broyden mixing:
  rms(total) = 0.35493E-03    rms(broyden)= 0.35484E-03
  rms(prec ) = 0.42038E-03
  weight for this iteration     100.00

 eigenvalues of (default mixing * dielectric matrix)
  average eigenvalue GAMMA=   1.2346
  3.3370  2.4471  1.7539  1.4649  1.4649  0.3282  0.9649  0.9649  0.7392  0.7392
  0.6731  0.6321  0.5402

 Free energy of the ion-electron system (eV)
  ---------------------------------------------------
  alpha Z        PSCENC =        21.49062660
  Ewald energy   TEWEN  =     13266.43990218
  -Hartree energ DENC   =    -16458.39159030
  -exchange      EXHF   =         0.00000000
  -V(xc)+E(xc)   XCENC  =       133.24978731
  PAW double counting   =      4316.07265389    -4319.03824881
  entropy T*S    EENTRO =        -0.00000000
  eigenvalues    EBANDS =      -636.98610146
  atomic energy  EATOM  =      3646.96265231
  Solvation  Ediel_sol  =         0.00000000
  ---------------------------------------------------
  free energy    TOTEN  =       -30.20031829 eV

  energy without entropy =      -30.20031829  energy(sigma->0) =      -30.20031829


--------------------------------------------------------------------------------------------------------




--------------------------------------- Iteration      1(  19)  ---------------------------------------


    POTLOK:  cpu time      0.2300: real time      0.2649
    SETDIJ:  cpu time      0.5824: real time      0.5984
     EDDAV:  cpu time     37.0815: real time     37.8672
       DOS:  cpu time      0.0144: real time      0.0322
    CHARGE:  cpu time      1.7538: real time      1.7884
    MIXING:  cpu time      0.0190: real time      0.0363
    --------------------------------------------
      LOOP:  cpu time     39.6811: real time     40.5875

 eigenvalue-minimisations  : 12032
 total energy-change (2. order) :-0.3755357E-04  (-0.1124021E-06)
 number of electron      58.0000000 magnetization       0.0000000
 augmentation part        2.5131032 magnetization       0.0000025

 Broyden mixing:
  rms(total) = 0.30776E-03    rms(broyden)= 0.30771E-03
  rms(prec ) = 0.35500E-03
  weight for this iteration     100.00

 eigenvalues of (default mixing * dielectric matrix)
  average eigenvalue GAMMA=   1.2534
  3.3450  2.6067  1.7960  1.7960  1.3482  1.3482  0.3282  0.8417  0.8417  0.7335
  0.7335  0.5909  0.6188  0.6188

 Free energy of the ion-electron system (eV)
  ---------------------------------------------------
  alpha Z        PSCENC =        21.49062660
  Ewald energy   TEWEN  =     13266.43990218
  -Hartree energ DENC   =    -16458.34494756
  -exchange      EXHF   =         0.00000000
  -V(xc)+E(xc)   XCENC  =       133.24924636
  PAW double counting   =      4315.95335149    -4318.92060357
  entropy T*S    EENTRO =        -0.00000000
  eigenvalues    EBANDS =      -637.03058365
  atomic energy  EATOM  =      3646.96265231
  Solvation  Ediel_sol  =         0.00000000
  ---------------------------------------------------
  free energy    TOTEN  =       -30.20035584 eV

  energy without entropy =      -30.20035584  energy(sigma->0) =      -30.20035584


--------------------------------------------------------------------------------------------------------




--------------------------------------- Iteration      1(  20)  ---------------------------------------


    POTLOK:  cpu time      0.2213: real time      0.2478
    SETDIJ:  cpu time      0.5855: real time      0.5958
     EDDAV:  cpu time     35.3800: real time     36.0644
       DOS:  cpu time      0.0266: real time      0.0457
    CHARGE:  cpu time      1.8175: real time      1.8503
    MIXING:  cpu time      0.0232: real time      0.0337
    --------------------------------------------
      LOOP:  cpu time     38.0541: real time     38.8377

 eigenvalue-minimisations  : 11264
 total energy-change (2. order) :-0.2698053E-04  (-0.6512824E-07)
 number of electron      58.0000000 magnetization       0.0000000
 augmentation part        2.5129002 magnetization      -0.0000022

 Broyden mixing:
  rms(total) = 0.28787E-03    rms(broyden)= 0.28782E-03
  rms(prec ) = 0.32222E-03
  weight for this iteration     100.00

 eigenvalues of (default mixing * dielectric matrix)
  average eigenvalue GAMMA=   1.2695
  3.3574  2.6775  2.2857  1.6065  1.6065  1.3098  0.3282  0.8875  0.8875  0.7725
  0.7725  0.7042  0.6440  0.6011  0.6011

 Free energy of the ion-electron system (eV)
  ---------------------------------------------------
  alpha Z        PSCENC =        21.49062660
  Ewald energy   TEWEN  =     13266.43990218
  -Hartree energ DENC   =    -16458.30714866
  -exchange      EXHF   =         0.00000000
  -V(xc)+E(xc)   XCENC  =       133.24851568
  PAW double counting   =      4315.92035721    -4318.88807298
  entropy T*S    EENTRO =        -0.00000000
  eigenvalues    EBANDS =      -637.06721516
  atomic energy  EATOM  =      3646.96265231
  Solvation  Ediel_sol  =         0.00000000
  ---------------------------------------------------
  free energy    TOTEN  =       -30.20038282 eV

  energy without entropy =      -30.20038282  energy(sigma->0) =      -30.20038282


--------------------------------------------------------------------------------------------------------




--------------------------------------- Iteration      1(  21)  ---------------------------------------


    POTLOK:  cpu time      0.2261: real time      0.2807
    SETDIJ:  cpu time      0.5832: real time      0.5907
     EDDAV:  cpu time     37.0829: real time     38.0088
       DOS:  cpu time      0.0124: real time      0.0454
    CHARGE:  cpu time      1.6880: real time      1.7201
    MIXING:  cpu time      0.0227: real time      0.0339
    --------------------------------------------
      LOOP:  cpu time     39.6152: real time     40.6796

 eigenvalue-minimisations  : 11968
 total energy-change (2. order) :-0.2479418E-04  (-0.7338555E-07)
 number of electron      58.0000000 magnetization       0.0000000
 augmentation part        2.5129893 magnetization      -0.0000019

 Broyden mixing:
  rms(total) = 0.99782E-04    rms(broyden)= 0.99674E-04
  rms(prec ) = 0.14037E-03
  weight for this iteration     100.00

 eigenvalues of (default mixing * dielectric matrix)
  average eigenvalue GAMMA=   1.3176
  3.3751  2.9132  2.7366  1.6993  1.6993  1.2184  1.2184  0.3282  0.9052  0.9052
  0.7640  0.7640  0.7030  0.6265  0.6129  0.6129

 Free energy of the ion-electron system (eV)
  ---------------------------------------------------
  alpha Z        PSCENC =        21.49062660
  Ewald energy   TEWEN  =     13266.43990218
  -Hartree energ DENC   =    -16458.25960519
  -exchange      EXHF   =         0.00000000
  -V(xc)+E(xc)   XCENC  =       133.24847188
  PAW double counting   =      4315.99974244    -4318.96742736
  entropy T*S    EENTRO =        -0.00000000
  eigenvalues    EBANDS =      -637.11477048
  atomic energy  EATOM  =      3646.96265231
  Solvation  Ediel_sol  =         0.00000000
  ---------------------------------------------------
  free energy    TOTEN  =       -30.20040761 eV

  energy without entropy =      -30.20040761  energy(sigma->0) =      -30.20040761


--------------------------------------------------------------------------------------------------------




--------------------------------------- Iteration      1(  22)  ---------------------------------------


    POTLOK:  cpu time      0.2296: real time      0.3083
    SETDIJ:  cpu time      0.5891: real time      0.6053
     EDDAV:  cpu time     34.0264: real time     34.6723
       DOS:  cpu time      0.0062: real time      0.0183
    CHARGE:  cpu time      1.8390: real time      1.8725
    MIXING:  cpu time      0.0227: real time      0.0792
    --------------------------------------------
      LOOP:  cpu time     36.7132: real time     37.5561

 eigenvalue-minimisations  : 10880
 total energy-change (2. order) :-0.3252547E-04  (-0.1753826E-06)
 number of electron      58.0000000 magnetization       0.0000000
 augmentation part        2.5131388 magnetization       0.0000017

 Broyden mixing:
  rms(total) = 0.21058E-03    rms(broyden)= 0.21053E-03
  rms(prec ) = 0.21844E-03
  weight for this iteration     100.00

 eigenvalues of (default mixing * dielectric matrix)
  average eigenvalue GAMMA=   1.3920
[...]
     48       3.4407      0.00000
     49       3.5711      0.00000
     50       3.7483      0.00000
     51       3.8047      0.00000
     52       4.0033      0.00000
     53       4.0174      0.00000
     54       4.0879      0.00000
     55       4.1592      0.00000
     56       4.3536      0.00000
     57       4.4157      0.00000
     58       4.5408      0.00000
     59       4.6999      0.00000
     60       4.7648      0.00000
     61       4.8510      0.00000
     62       4.9378      0.00000
     63       5.0946      0.00000
     64       5.1892      0.00000

 k-point    33 :       0.2857    0.2857    0.0000
  band No.  band energies     occupation 
      1     -19.9536      1.00000
      2     -19.8034      1.00000
      3     -19.5364      1.00000
      4     -19.4534      1.00000
      5     -19.3915      1.00000
      6     -19.3702      1.00000
      7     -12.1918      1.00000
      8     -12.1406      1.00000
      9     -12.0408      1.00000
     10     -12.0340      1.00000
     11     -12.0233      1.00000
     12     -10.0036      1.00000
     13      -9.4878      1.00000
     14      -9.1182      1.00000
     15      -8.9625      1.00000
     16      -8.7976      1.00000
     17      -8.3543      1.00000
     18      -8.0944      1.00000
     19      -8.0486      1.00000
     20      -7.9376      1.00000
     21      -7.6131      1.00000
     22      -7.3631      1.00000
     23      -7.0392      1.00000
     24      -6.9732      1.00000
     25      -6.9011      1.00000
     26      -6.7263      1.00000
     27      -6.6296      1.00000
     28      -6.3352      1.00000
     29      -6.2655      1.00000
     30      -4.2401      0.00000
     31      -4.2046      0.00000
     32      -4.1504      0.00000
     33      -4.0559      0.00000
     34      -3.9817      0.00000
     35       0.6991      0.00000
     36       1.4209      0.00000
     37       1.7835      0.00000
     38       2.1190      0.00000
     39       2.1579      0.00000
     40       2.3520      0.00000
     41       2.8425      0.00000
     42       2.8790      0.00000
     43       2.8857      0.00000
     44       3.0912      0.00000
     45       3.2570      0.00000
     46       3.3445      0.00000
     47       3.3754      0.00000
     48       3.6294      0.00000
     49       3.6410      0.00000
     50       3.6504      0.00000
     51       3.7826      0.00000
     52       3.8717      0.00000
     53       3.9059      0.00000
     54       4.1132      0.00000
     55       4.1468      0.00000
     56       4.2883      0.00000
     57       4.4699      0.00000
     58       4.4842      0.00000
     59       4.6899      0.00000
     60       4.7666      0.00000
     61       4.7925      0.00000
     62       4.8489      0.00000
     63       5.1558      0.00000
     64       5.2367      0.00000

 k-point    34 :       0.3571    0.2857    0.0000
  band No.  band energies     occupation 
      1     -19.9092      1.00000
      2     -19.8458      1.00000
      3     -19.5411      1.00000
      4     -19.4448      1.00000
      5     -19.3967      1.00000
      6     -19.3731      1.00000
      7     -12.1941      1.00000
      8     -12.1404      1.00000
      9     -12.0391      1.00000
     10     -12.0306      1.00000
     11     -12.0271      1.00000
     12      -9.9805      1.00000
     13      -9.5011      1.00000
     14      -9.1068      1.00000
     15      -8.9442      1.00000
     16      -8.8332      1.00000
     17      -8.3393      1.00000
     18      -8.0942      1.00000
     19      -8.0757      1.00000
     20      -7.9199      1.00000
     21      -7.6177      1.00000
     22      -7.3688      1.00000
     23      -7.0450      1.00000
     24      -6.9869      1.00000
     25      -6.8798      1.00000
     26      -6.7313      1.00000
     27      -6.6224      1.00000
     28      -6.3383      1.00000
     29      -6.2569      1.00000
     30      -4.2368      0.00000
     31      -4.2032      0.00000
     32      -4.1524      0.00000
     33      -4.0569      0.00000
     34      -3.9802      0.00000
     35       0.6957      0.00000
     36       1.4054      0.00000
     37       1.8888      0.00000
     38       2.0058      0.00000
     39       2.1463      0.00000
     40       2.5805      0.00000
     41       2.6193      0.00000
     42       2.8686      0.00000
     43       3.0757      0.00000
     44       3.1802      0.00000
     45       3.2603      0.00000
     46       3.2948      0.00000
     47       3.3978      0.00000
     48       3.4813      0.00000
     49       3.5721      0.00000
     50       3.6128      0.00000
     51       3.7266      0.00000
     52       3.8748      0.00000
     53       3.9702      0.00000
     54       4.0316      0.00000
     55       4.1380      0.00000
     56       4.1684      0.00000
     57       4.3962      0.00000
     58       4.5528      0.00000
     59       4.6201      0.00000
     60       4.7474      0.00000
     61       4.8034      0.00000
     62       5.0007      0.00000
     63       5.0399      0.00000
     64       5.2606      0.00000


--------------------------------------------------------------------------------------------------------


 soft charge-density along one line, spin component           1
         0         1         2         3         4         5         6         7         8         9
 total charge-density along one line
 
 soft charge-density along one line, spin component           2
         0         1         2         3         4         5         6         7         8         9
 total charge-density along one line
 
 pseudopotential strength for first ion, spin component:           1
-16.651   0.020   0.000  -0.000   0.000 -16.949   0.017   0.000
  0.020 -16.634  -0.000  -0.000  -0.000   0.017 -16.934  -0.000
  0.000  -0.000 -16.672  -0.000  -0.000   0.000  -0.000 -16.967
 -0.000  -0.000  -0.000 -16.634  -0.020  -0.000  -0.000  -0.000
  0.000  -0.000  -0.000  -0.020 -16.651   0.000  -0.000  -0.000
-16.949   0.017   0.000  -0.000   0.000 -17.227   0.012   0.000
  0.017 -16.934  -0.000  -0.000  -0.000   0.012 -17.216  -0.000
  0.000  -0.000 -16.967  -0.000  -0.000   0.000  -0.000 -17.242
 -0.000  -0.000  -0.000 -16.934  -0.017  -0.000  -0.000  -0.000
  0.000  -0.000  -0.000  -0.017 -16.949   0.000  -0.000  -0.000
  0.000   0.000   0.000   0.000  -0.000   0.000   0.000   0.000
  0.000   0.000   0.001   0.000  -0.000   0.000   0.000   0.001
 -0.000   0.000   0.000  -0.000   0.002  -0.000   0.000   0.000
 -0.000  -0.000   0.000  -0.000  -0.000  -0.000  -0.000   0.000
  0.002  -0.000   0.000   0.000   0.000   0.002  -0.000   0.000
 -0.000   0.000   0.000  -0.000   0.003  -0.000   0.000   0.000
 -0.000  -0.000   0.000  -0.000  -0.000  -0.000  -0.000   0.000
  0.003  -0.000   0.000   0.000   0.000   0.003  -0.000   0.000
 pseudopotential strength for first ion, spin component:           2
-11.054  -0.467   0.000   0.003   0.000 -11.388  -0.471   0.000
 -0.467 -11.404  -0.000  -0.000   0.003  -0.471 -11.741  -0.000
  0.000  -0.000 -10.693  -0.000  -0.000   0.000  -0.000 -11.024
  0.003  -0.000  -0.000 -11.404   0.467   0.003  -0.000  -0.000
  0.000   0.003  -0.000   0.467 -11.054   0.000   0.003  -0.000
-11.388  -0.471   0.000   0.003   0.000 -11.673  -0.480   0.000
 -0.471 -11.741  -0.000  -0.000   0.003  -0.480 -12.032  -0.000
  0.000  -0.000 -11.024  -0.000  -0.000   0.000  -0.000 -11.302
  0.003  -0.000  -0.000 -11.741   0.471   0.003  -0.000  -0.000
  0.000   0.003  -0.000   0.471 -11.388   0.000   0.003  -0.000
  0.000   0.000  -0.001   0.000  -0.000   0.000   0.000  -0.001
  0.000   0.000  -0.002   0.000  -0.000   0.000   0.000  -0.002
  0.000   0.000   0.000  -0.000  -0.001   0.000   0.000   0.000
 -0.000  -0.000   0.000  -0.000   0.000  -0.000  -0.000   0.000
 -0.001  -0.000   0.000   0.000  -0.000  -0.000  -0.000   0.000
  0.000   0.000   0.000  -0.000  -0.001   0.000   0.000   0.000
 -0.000  -0.000   0.000  -0.000   0.000  -0.000  -0.000   0.000
 -0.001  -0.000   0.000   0.000  -0.000  -0.000  -0.000   0.000
 total augmentation occupancy for first ion, spin component:           1
  6.972   2.212  -0.000  -0.009   0.000  -4.779  -2.155   0.000   0.009  -0.000  -0.000   0.000   0.006   0.000  -0.079  -0.000
  2.212   8.501   0.000   0.000  -0.009  -2.155  -6.258  -0.000  -0.000   0.009   0.000   0.000   0.008   0.000   0.007   0.000
 -0.000   0.000   5.308   0.000  -0.000  -0.000  -0.000  -3.153  -0.000   0.000   0.033  -0.003   0.000  -0.002   0.000  -0.000
 -0.009   0.000   0.000   8.501  -2.212   0.009   0.000  -0.000  -6.258   2.155   0.000  -0.000  -0.007  -0.000   0.008  -0.000
  0.000  -0.009  -0.000  -2.212   6.972   0.000   0.009   0.000   2.155  -4.779  -0.000   0.000  -0.079   0.000  -0.006   0.006
 -4.779  -2.155  -0.000   0.009   0.000   3.828   2.224  -0.000  -0.010   0.000   0.000   0.000  -0.007  -0.000   0.089   0.000
 -2.155  -6.258  -0.000   0.000   0.009   2.224   5.351   0.000   0.000  -0.010   0.000   0.000  -0.009   0.000  -0.009   0.000
  0.000  -0.000  -3.153  -0.000   0.000  -0.000   0.000   2.140   0.000  -0.000  -0.039   0.005  -0.000   0.001  -0.000   0.000
  0.009  -0.000  -0.000  -6.258   2.155  -0.010   0.000   0.000   5.351  -2.224  -0.000   0.000   0.009  -0.000  -0.009   0.000
 -0.000   0.009   0.000   2.155  -4.779  -0.000  -0.010  -0.000  -2.224   3.828   0.000  -0.000   0.089  -0.000   0.007  -0.008
 -0.000   0.000   0.033   0.000  -0.000   0.000   0.000  -0.039  -0.000   0.000   1.476  -0.138   0.000  -0.004   0.000   0.000
  0.000   0.000  -0.003   0.000   0.000   0.000   0.000   0.005   0.000  -0.000  -0.138   0.030  -0.000   0.000  -0.000   0.000
  0.006   0.008   0.000  -0.007  -0.079  -0.007  -0.009  -0.000   0.009   0.089   0.000   0.000   0.222   0.000  -0.000  -0.020
  0.000  -0.000  -0.002  -0.000   0.000  -0.000   0.000   0.001   0.000  -0.000  -0.004   0.000   0.000   0.218   0.000   0.000
 -0.079   0.007   0.000   0.008  -0.006   0.089  -0.009  -0.000  -0.009   0.007  -0.000  -0.000   0.000   0.000   0.222   0.000
 -0.000   0.000  -0.000  -0.000   0.006   0.000   0.000   0.000   0.000  -0.008   0.000   0.000  -0.020   0.000   0.000   0.003
 -0.000   0.000   0.001   0.000  -0.000   0.000   0.000  -0.000  -0.000   0.000   0.001  -0.000   0.000  -0.019  -0.000  -0.000
  0.006   0.000  -0.000   0.000   0.000  -0.008  -0.000   0.000   0.000  -0.000  -0.000   0.000  -0.000   0.000  -0.020   0.000
 total augmentation occupancy for first ion, spin component:           2
  6.656   1.946  -0.000  -0.008  -0.000  -4.295  -1.793  -0.000   0.008   0.000  -0.000  -0.000   0.004   0.000  -0.034   0.000
  1.946   8.010   0.000   0.000  -0.008  -1.793  -5.548  -0.000   0.000   0.008   0.000   0.000   0.004   0.000   0.014   0.001
 -0.000   0.000   5.191   0.000  -0.000   0.000  -0.000  -2.944  -0.000   0.000   0.006   0.002   0.000  -0.002   0.000   0.000
 -0.008   0.000   0.000   8.010  -1.946   0.008  -0.000  -0.000  -5.548   1.793   0.000   0.000  -0.014   0.000   0.004   0.000
  0.000  -0.008  -0.000  -1.946   6.656  -0.000   0.008   0.000   1.793  -4.295  -0.000  -0.000  -0.034   0.000  -0.004  -0.001
 -4.295  -1.793   0.000   0.008  -0.000   2.865   1.524  -0.000  -0.007   0.000   0.000   0.000  -0.003  -0.000   0.020  -0.000
 -1.793  -5.548  -0.000  -0.000   0.008   1.524   3.932   0.000   0.000  -0.007   0.000   0.000  -0.003   0.000  -0.009  -0.001
 -0.000  -0.000  -2.944  -0.000   0.000  -0.000   0.000   1.719   0.000  -0.000  -0.002  -0.001  -0.000   0.001  -0.000  -0.000
  0.008   0.000  -0.000  -5.548   1.793  -0.007   0.000   0.000   3.932  -1.524  -0.000   0.000   0.009  -0.000  -0.003  -0.000
  0.000   0.008   0.000   1.793  -4.295   0.000  -0.007  -0.000  -1.524   2.865   0.000   0.000   0.020  -0.000   0.003   0.001
 -0.000   0.000   0.006   0.000  -0.000   0.000   0.000  -0.002   0.000   0.000  -0.251   0.103   0.000   0.001  -0.000   0.000
 -0.000   0.000   0.002   0.000  -0.000   0.000   0.000  -0.001  -0.000   0.000   0.103  -0.011   0.000  -0.000  -0.000   0.000
  0.004   0.004   0.000  -0.014  -0.034  -0.003  -0.003  -0.000   0.009   0.020   0.000   0.000  -0.005   0.000   0.000   0.006
  0.000   0.000  -0.002   0.000   0.000   0.000   0.000   0.001  -0.000  -0.000   0.001  -0.000  -0.000  -0.003   0.000  -0.000
 -0.034   0.014   0.000   0.004  -0.004   0.020  -0.009  -0.000  -0.003   0.003  -0.000  -0.000  -0.000   0.000  -0.005   0.000
  0.000   0.001   0.000   0.000  -0.001  -0.000  -0.001  -0.000  -0.000   0.001  -0.000   0.000   0.006   0.000   0.000  -0.001
 -0.000   0.000   0.001   0.000  -0.000   0.000  -0.000  -0.000   0.000   0.000  -0.000   0.000  -0.000   0.006  -0.000   0.000
 -0.001  -0.000   0.000   0.001  -0.000   0.001   0.000  -0.000  -0.001   0.000  -0.000  -0.000  -0.000   0.000   0.006  -0.000


------------------------ aborting loop because EDIFF is reached ----------------------------------------


    CHARGE:  cpu time      1.8179: real time      1.8476
    FORLOC:  cpu time      0.0178: real time      0.0183
    FORNL :  cpu time      3.1145: real time      3.1419
    STRESS:  cpu time     13.6666: real time     13.7968
    FORCOR:  cpu time      0.2022: real time      0.2374
    FORHAR:  cpu time      0.0256: real time      0.0276
    MIXING:  cpu time      0.0159: real time      0.0249
    OFIELD:  cpu time      0.0007: real time      0.0017

 ---------------------------------------------------------------------------------------------

         DFTD3 V3.0 Rev 1        
 DF pbe       
 parameters
 rs18     =    1.0000
 alpha6   =   14.0000
 alpha8   =   16.0000
 k1-k3    =   16.0000    1.3333   -4.0000
 Edisp (eV)   -0.74577

 E6    (eV) :    -0.2763
 E8    (eV) :    -0.4695
 % E8        : 62.95
    FORVDW:  cpu time      0.0563: real time      0.1041

  FORCE on cell =-STRESS in cart. coord.  units (eV):
  Direction    XX          YY          ZZ          XY          YZ          ZX
  --------------------------------------------------------------------------------------
  Alpha Z    21.49063    21.49063    21.49063
  Ewald   15137.36877 15137.37682-17008.30719     0.00508     0.00012     0.00133
  Hartree 15881.18936 15881.19174-15304.23453     0.00171    -0.00000     0.00001
  E(xc)    -235.95992  -235.95993  -236.25239    -0.00000    -0.00000    -0.00000
  Local  -32048.88672-32048.89522 31277.83699    -0.00612    -0.00006    -0.00091
  n-local   452.69152   453.08274   452.54844    -0.27036     0.12763    -0.09022
  augment   -34.87314   -34.87327   -35.24268    -0.00011    -0.00002    -0.00007
  Kinetic   826.25527   825.89463   831.01081     0.12164    -0.03287    -0.04975
  Fock        0.00000     0.00000     0.00000     0.00000     0.00000     0.00000
  vdW         0.77359     0.77358     1.12074     0.00000    -0.00000    -0.00001
  -------------------------------------------------------------------------------------
  Total       0.06553     0.06553    -0.02917     0.00000    -0.00000     0.00000
  in kB       0.10996     0.10996    -0.04895     0.00000    -0.00000     0.00000
  external pressure =        0.06 kB  Pullay stress =        0.00 kB


 VOLUME and BASIS-vectors are now :
 -----------------------------------------------------------------------------
  energy-cutoff  :      500.00
  volume of cell :      954.89
      direct lattice vectors                 reciprocal lattice vectors
     6.181820000  0.000000000  0.000000000     0.161764658  0.093394924  0.000000000
    -3.090910000  5.353610000  0.000000000     0.000000000  0.186789848  0.000000000
     0.000000000  0.000000000 28.852900000     0.000000000  0.000000000  0.034658561

  length of vectors
     6.181820000  6.181817262 28.852900000     0.186789766  0.186789848  0.034658561


 FORCES acting on ions
    electron-ion (+dipol)            ewald-force                    non-local-force                 convergence-correction
 -----------------------------------------------------------------------------------------------
   0.676E-03 -.419E-03 0.106E+01   0.114E-02 0.823E-03 -.112E+01   -.173E-17 0.000E+00 0.798E-01   0.260E-07 -.861E-07 0.234E-05
   -.806E-04 0.844E-04 -.174E+01   0.450E-02 -.400E-02 0.179E+01   0.867E-18 -.173E-17 -.662E-01   0.963E-06 -.415E-06 0.114E-05
   -.854E+02 -.840E+00 -.562E+03   0.870E+02 0.850E+00 0.564E+03   -.169E+01 -.165E-02 -.250E+01   -.631E-04 -.858E-05 0.406E-04
   0.434E+02 -.736E+02 -.562E+03   -.442E+02 0.749E+02 0.564E+03   0.848E+00 -.146E+01 -.250E+01   0.391E-04 -.513E-04 0.410E-04
   0.420E+02 0.744E+02 -.562E+03   -.428E+02 -.758E+02 0.564E+03   0.845E+00 0.147E+01 -.250E+01   0.241E-04 0.598E-04 0.406E-04
   -.420E+02 -.744E+02 0.562E+03   0.427E+02 0.757E+02 -.564E+03   -.840E+00 -.146E+01 0.250E+01   -.387E-04 -.509E-04 -.381E-04
   0.854E+02 0.829E+00 0.562E+03   -.870E+02 -.843E+00 -.564E+03   0.168E+01 0.180E-02 0.250E+01   0.637E-04 -.712E-05 -.384E-04
   -.434E+02 0.735E+02 0.562E+03   0.442E+02 -.749E+02 -.564E+03   -.843E+00 0.146E+01 0.250E+01   -.249E-04 0.580E-04 -.380E-04
 -----------------------------------------------------------------------------------------------
   0.273E-01 -.157E-01 -.209E-01   0.142E-13 0.142E-13 -.114E-12   0.111E-15 0.222E-15 0.210E-01   0.127E-05 -.631E-06 0.111E-04
 
 
 POSITION                                       TOTAL-FORCE (eV/Angst)
 -----------------------------------------------------------------------------------
      6.18181      0.00000      6.52283        -0.000000     -0.000000      0.007964
      3.09088      1.78455      6.53363         0.000000     -0.000000     -0.005678
      3.95524      3.56843      7.90620         0.001549      0.007542      0.007563
      1.11385      1.64112      7.90620        -0.007306     -0.002430      0.007563
      4.20364      0.14407      7.90620         0.005757     -0.005112      0.007563
      5.06771      1.63814      5.14927        -0.002771      0.008095     -0.008326
      2.22929      3.56970      5.14929        -0.005626     -0.006447     -0.008326
      1.97571      0.14578      5.14926         0.008396     -0.001648     -0.008326
 -----------------------------------------------------------------------------------
    total drift:                                0.027252     -0.015711      0.000075


--------------------------------------------------------------------------------------------------------



  FREE ENERGIE OF THE ION-ELECTRON SYSTEM (eV)
  ---------------------------------------------------
  free  energy   TOTEN  =       -30.94622444 eV

  energy  without entropy=      -30.94622444  energy(sigma->0) =      -30.94622444
 


--------------------------------------------------------------------------------------------------------


    POTLOK:  cpu time      0.7540: real time      0.7888


--------------------------------------------------------------------------------------------------------


     LOOP+:  cpu time    999.9215: real time   1028.9914
    4ORBIT:  cpu time      0.0000: real time      0.0000

 total amount of memory used by VASP MPI-rank0   393134. kBytes
=======================================================================

   base      :      30000. kBytes
   nonl-proj :     241571. kBytes
   fftplans  :      19623. kBytes
   grid      :      48494. kBytes
   one-center:        248. kBytes
   wavefun   :      53198. kBytes
 
  
  
 General timing and accounting informations for this job:
 ========================================================
  
                  Total CPU time used (sec):     1012.263
                            User time (sec):      977.766
                          System time (sec):       34.497
                         Elapsed time (sec):     1043.917
  
                   Maximum memory used (kb):      623820.
                   Average memory used (kb):          N/A
  
                          Minor page faults:       492393
                          Major page faults:        75701
                 Voluntary context switches:       111711
