 vasp.6.4.1 05Apr23 (build Aug  9 2024 23:13:06) complex                         
 executed on              LinuxNV date 2025.10.29  08:32:42
 running    1 mpi-ranks, with    1 threads/rank, on    1 nodes
 distrk:  each k-point on    1 cores,    1 groups
 distr:  one band on NCORE=   1 cores,    1 groups
 OpenACC runtime initialized ...    1 GPUs detected


--------------------------------------------------------------------------------------------------------


 INCAR:
   PREC = Accurate
   EDIFF = 1E-5
   ENCUT = 520
   NSW = 300
   IBRION = 2
   ISMEAR = 0
   SIGMA = 0.05
   ISIF = 3
   ISPIN = 2
   MAGMOM = 6 6 0 0 0 0 0 0
   LREAL = F
   LWAVE = F
   LCHARG = F
   IVDW = 10
   LDAU = .TRUE.
   LDAUTYPE = 2
   LDAUL = 2  -1
   LDAUU = 4.5 0.0
   LDAUJ = 0.9 0.0

 POTCAR:    PAW_PBE Fe 06Sep2000                  
 POTCAR:    PAW_PBE Cl 06Sep2000                  
 POTCAR:    PAW_PBE Fe 06Sep2000                  
   VRHFIN =Fe:  d7 s1                                                                               
   LEXCH  = PE                                                                                      
   EATOM  =   594.3153 eV,   43.6809 Ry                                                             
                                                                                                    
   TITEL  = PAW_PBE Fe 06Sep2000                                                                    
   LULTRA =        F    use ultrasoft PP ?                                                          
   IUNSCR =        1    unscreen: 0-lin 1-nonlin 2-no                                               
   RPACOR =    2.000    partial core radius                                                         
   POMASS =   55.847; ZVAL   =    8.000    mass and valenz                                          
   RCORE  =    2.300    outmost cutoff radius                                                       
   RWIGS  =    2.460; RWIGS  =    1.302    wigner-seitz radius (au A)                               
   ENMAX  =  267.882; ENMIN  =  200.911 eV                                                          
   RCLOC  =    1.701    cutoff for local pot                                                        
   LCOR   =        T    correct aug charges                                                         
   LPAW   =        T    paw PP                                                                      
   EAUG   =  511.368                                                                                
   DEXC   =    0.000                                                                                
   RMAX   =    2.356    core radius for proj-oper                                                   
   RAUG   =    1.300    factor for augmentation sphere                                              
   RDEP   =    2.442    radius for radial grids                                                     
   RDEPT  =    1.890    core radius for aug-charge                                                  
                                                                                                    
   Atomic configuration                                                                             
    9 entries                                                                                       
     n  l   j            E        occ.                                                              
     1  0  0.50     -6993.8440   2.0000                                                             
     2  0  0.50      -814.6047   2.0000                                                             
     2  1  1.50      -693.3689   6.0000                                                             
     3  0  0.50       -89.4732   2.0000                                                             
     3  1  1.50       -55.6373   6.0000                                                             
     3  2  2.50        -3.8151   7.0000                                                             
     4  0  0.50        -4.2551   1.0000                                                             
     4  1  1.50        -3.4015   0.0000                                                             
     4  3  2.50        -1.3606   0.0000                                                             
   Description                                                                                      
     l       E           TYP  RCUT    TYP  RCUT                                                     
     2     -3.8151135     23  2.300                                                                 
     2     -5.1756961     23  2.300                                                                 
     0     -4.2550963     23  2.300                                                                 
     0      7.2035603     23  2.300                                                                 
     1     -2.7211652     23  2.300                                                                 
     1     18.4316424     23  2.300                                                                 
  local pseudopotential read in
  partial core-charges read in
  partial kinetic energy density read in
  atomic valenz-charges read in
  non local Contribution for L=            2  read in
    real space projection operators read in
  non local Contribution for L=            2  read in
    real space projection operators read in
  non local Contribution for L=            0  read in
    real space projection operators read in
  non local Contribution for L=            0  read in
    real space projection operators read in
  non local Contribution for L=            1  read in
    real space projection operators read in
  non local Contribution for L=            1  read in
    real space projection operators read in
    PAW grid and wavefunctions read in
 
   number of l-projection  operators is LMAX  =            6
   number of lm-projection operators is LMMAX =           18
 
 POTCAR:    PAW_PBE Cl 06Sep2000                  
   VRHFIN =Cl: s2p5                                                                                 
   LEXCH  = PE                                                                                      
   EATOM  =   409.7259 eV,   30.1140 Ry                                                             
                                                                                                    
   TITEL  = PAW_PBE Cl 06Sep2000                                                                    
   LULTRA =        F    use ultrasoft PP ?                                                          
   IUNSCR =        1    unscreen: 0-lin 1-nonlin 2-no                                               
   RPACOR =    1.500    partial core radius                                                         
   POMASS =   35.453; ZVAL   =    7.000    mass and valenz                                          
   RCORE  =    1.900    outmost cutoff radius                                                       
   RWIGS  =    2.100; RWIGS  =    1.111    wigner-seitz radius (au A)                               
   ENMAX  =  262.472; ENMIN  =  196.854 eV                                                          
   ICORE  =        2    local potential                                                             
   LCOR   =        T    correct aug charges                                                         
   LPAW   =        T    paw PP                                                                      
   EAUG   =  356.192                                                                                
   DEXC   =    0.000                                                                                
   RMAX   =    1.945    core radius for proj-oper                                                   
   RAUG   =    1.300    factor for augmentation sphere                                              
   RDEP   =    2.020    radius for radial grids                                                     
   RDEPT  =    1.678    core radius for aug-charge                                                  
                                                                                                    
   Atomic configuration                                                                             
    6 entries                                                                                       
     n  l   j            E        occ.                                                              
     1  0  0.50     -2751.1850   2.0000                                                             
     2  0  0.50      -252.6861   2.0000                                                             
     2  1  1.50      -191.6157   6.0000                                                             
     3  0  0.50       -20.6916   2.0000                                                             
     3  1  0.50        -8.5949   5.0000                                                             
     3  2  1.50        -8.1635   0.0000                                                             
   Description                                                                                      
     l       E           TYP  RCUT    TYP  RCUT                                                     
     0    -20.6915656     23  1.900                                                                 
     0    -22.0521482     23  1.900                                                                 
     1     -8.5948577     23  1.900                                                                 
     1     -5.3847331     23  1.900                                                                 
     2     -8.1634956     23  1.900                                                                 
  local pseudopotential read in
  partial core-charges read in
  partial kinetic energy density read in
  atomic valenz-charges read in
  non local Contribution for L=            0  read in
    real space projection operators read in
  non local Contribution for L=            0  read in
    real space projection operators read in
  non local Contribution for L=            1  read in
    real space projection operators read in
  non local Contribution for L=            1  read in
    real space projection operators read in
    PAW grid and wavefunctions read in
 
   number of l-projection  operators is LMAX  =            4
   number of lm-projection operators is LMMAX =            8
 
  PAW_PBE Fe 06Sep2000                  :
 energy of atom  1       EATOM= -594.3153
 kinetic energy error for atom=    0.0026 (will be added to EATOM!!)
  PAW_PBE Cl 06Sep2000                  :
 energy of atom  2       EATOM= -409.7259
 kinetic energy error for atom=    0.0023 (will be added to EATOM!!)
 
 
 POSCAR: Fe Cl
  positions in direct lattice
  velocities in cartesian coordinates
 exchange correlation table for  LEXCH =        8
   RHO(1)=    0.500       N(1)  =     2000
   RHO(2)=  100.500       N(2)  =     4000
 


--------------------------------------------------------------------------------------------------------


 ion  position               nearest neighbor table
   1  0.000  1.000  0.363-   4 2.40   3 2.40   5 2.40   7 2.40   8 2.40   6 2.40
   2  0.667  0.333  0.363-   6 2.40   7 2.40   8 2.40   5 2.40   4 2.40   3 2.40
   3  0.978  0.667  0.440-   1 2.40   2 2.40
   4  0.333  0.312  0.440-   1 2.40   2 2.40
   5  0.688  0.022  0.440-   1 2.40   2 2.40
   6  0.978  0.311  0.285-   2 2.40   1 2.40
   7  0.689  0.667  0.285-   2 2.40   1 2.40
   8  0.333  0.022  0.285-   2 2.40   1 2.40
 
  LATTYP: Found a hexagonal cell.
 ALAT       =     6.0824163790
 C/A-ratio  =     2.9117638891
  
  Lattice vectors:
  
 A1 = (   6.0824163790,   0.0000000000,   0.0000000000)
 A2 = (  -3.0412081848,   5.2675238528,   0.0000000000)
 A3 = (   0.0000000000,   0.0000000000,  17.7105603711)


Analysis of symmetry for initial positions (statically):
=====================================================================
 Subroutine PRICEL returns:
 Original cell was already a primitive cell.
 

 Routine SETGRP: Setting up the symmetry group for a 
 hexagonal supercell.


 Subroutine GETGRP returns: Found  3 space group operations
 (whereof  3 operations were pure point group operations)
 out of a pool of 24 trial point group operations.


The static configuration has the point symmetry C_3 .


Analysis of symmetry for dynamics (positions and initial velocities):
=====================================================================
 Subroutine PRICEL returns:
 Original cell was already a primitive cell.
 

 Routine SETGRP: Setting up the symmetry group for a 
 hexagonal supercell.


 Subroutine GETGRP returns: Found  3 space group operations
 (whereof  3 operations were pure point group operations)
 out of a pool of 24 trial point group operations.


The dynamic configuration has the point symmetry C_3 .


Analysis of structural, dynamic, and magnetic symmetry:
=====================================================================
 Subroutine PRICEL returns:
 Original cell was already a primitive cell.
 

 Routine SETGRP: Setting up the symmetry group for a 
 hexagonal supercell.


 Subroutine GETGRP returns: Found  3 space group operations
 (whereof  3 operations were pure point group operations)
 out of a pool of 24 trial point group operations.


The overall configuration has the point symmetry C_3 .


 Subroutine INISYM returns: Found  3 space group operations
 (whereof  3 operations are pure point group operations),
 and found     1 'primitive' translations


----------------------------------------------------------------------------------------

                                     Primitive cell                                     

  volume of cell :     567.4335

  direct lattice vectors                    reciprocal lattice vectors
     6.082416379  0.000000000  0.000000000     0.164408343  0.094921260 -0.000000000
    -3.041208185  5.267523853  0.000000000     0.000000000  0.189842520  0.000000000
     0.000000000  0.000000000 17.710560371     0.000000000 -0.000000000  0.056463487

  length of vectors
     6.082416379  6.082413564 17.710560371     0.189842432  0.189842520  0.056463487

  position of ions in fractional coordinates (direct lattice)
     0.000000915  0.999999362  0.362773627
     0.666665863  0.333333877  0.362523952
     0.978141416  0.666541865  0.440364754
     0.333457892  0.311599908  0.440363840
     0.688398151  0.021861469  0.440364255
     0.978235010  0.311444082  0.284960434
     0.688555086  0.666795060  0.284961336
     0.333205708  0.021764360  0.284959054

  ion indices of the primitive-cell ions
   primitive index   ion index
                 1           1
                 2           2
                 3           3
                 4           4
                 5           5
                 6           6
                 7           7
                 8           8

----------------------------------------------------------------------------------------

 
 
 KPOINTS: Automatic mesh                          

Automatic generation of k-mesh.
 Grid dimensions read from file:
 generate k-points for:   24   24    1

 Generating k-lattice:

  Cartesian coordinates                     Fractional coordinates (reciprocal lattice)
     0.006850348  0.003955052 -0.000000000     0.041666667  0.000000000  0.000000000
     0.000000000  0.007910105  0.000000000     0.000000000  0.041666667  0.000000000
     0.000000000 -0.000000000  0.056463487     0.000000000  0.000000000  1.000000000

  Length of vectors
     0.007910101  0.007910105  0.056463487

  Shift w.r.t. Gamma in fractional coordinates (k-lattice)
     0.000000000  0.000000000  0.000000000

 
 Subroutine IBZKPT returns following result:
 ===========================================
 
 Found     98 irreducible k-points:
 
 Following reciprocal coordinates:
            Coordinates               Weight
  0.000000  0.000000  0.000000      1.000000
  0.041667  0.000000  0.000000      6.000000
  0.083333  0.000000  0.000000      6.000000
  0.125000  0.000000  0.000000      6.000000
  0.166667  0.000000  0.000000      6.000000
  0.208333  0.000000  0.000000      6.000000
  0.250000  0.000000  0.000000      6.000000
  0.291667  0.000000  0.000000      6.000000
  0.333333  0.000000  0.000000      6.000000
  0.375000  0.000000  0.000000      6.000000
  0.416667  0.000000  0.000000      6.000000
  0.458333  0.000000  0.000000      6.000000
  0.500000  0.000000  0.000000      3.000000
  0.041667  0.041667  0.000000      6.000000
  0.083333  0.041667  0.000000      6.000000
 -0.083333  0.125000  0.000000      6.000000
  0.125000  0.041667  0.000000      6.000000
 -0.125000  0.166667  0.000000      6.000000
  0.166667  0.041667  0.000000      6.000000
 -0.166667  0.208333  0.000000      6.000000
  0.208333  0.041667  0.000000      6.000000
 -0.208333  0.250000  0.000000      6.000000
  0.250000  0.041667  0.000000      6.000000
 -0.250000  0.291667  0.000000      6.000000
  0.291667  0.041667  0.000000      6.000000
 -0.291667  0.333333  0.000000      6.000000
  0.333333  0.041667  0.000000      6.000000
 -0.333333  0.375000  0.000000      6.000000
  0.375000  0.041667  0.000000      6.000000
 -0.375000  0.416667  0.000000      6.000000
  0.416667  0.041667  0.000000      6.000000
 -0.416667  0.458333  0.000000      6.000000
  0.458333  0.041667  0.000000      6.000000
 -0.458333  0.500000  0.000000      6.000000
  0.083333  0.083333  0.000000      6.000000
  0.125000  0.083333  0.000000      6.000000
 -0.125000  0.208333  0.000000      6.000000
  0.166667  0.083333  0.000000      6.000000
 -0.166667  0.250000  0.000000      6.000000
  0.208333  0.083333  0.000000      6.000000
 -0.208333  0.291667  0.000000      6.000000
  0.250000  0.083333  0.000000      6.000000
 -0.250000  0.333333  0.000000      6.000000
  0.291667  0.083333  0.000000      6.000000
 -0.291667  0.375000  0.000000      6.000000
  0.333333  0.083333  0.000000      6.000000
 -0.333333  0.416667  0.000000      6.000000
  0.375000  0.083333  0.000000      6.000000
 -0.375000  0.458333  0.000000      6.000000
  0.416667  0.083333  0.000000      6.000000
 -0.416667  0.500000  0.000000      6.000000
  0.458333  0.083333  0.000000      6.000000
  0.125000  0.125000  0.000000      6.000000
  0.166667  0.125000  0.000000      6.000000
 -0.166667  0.291667  0.000000      6.000000
  0.208333  0.125000  0.000000      6.000000
 -0.208333  0.333333  0.000000      6.000000
  0.250000  0.125000  0.000000      6.000000
 -0.250000  0.375000  0.000000      6.000000
  0.291667  0.125000  0.000000      6.000000
 -0.291667  0.416667  0.000000      6.000000
  0.333333  0.125000  0.000000      6.000000
 -0.333333  0.458333  0.000000      6.000000
  0.375000  0.125000  0.000000      6.000000
 -0.375000  0.500000  0.000000      6.000000
  0.416667  0.125000  0.000000      6.000000
 -0.416667 -0.458333  0.000000      6.000000
  0.166667  0.166667  0.000000      6.000000
  0.208333  0.166667  0.000000      6.000000
 -0.208333  0.375000  0.000000      6.000000
  0.250000  0.166667  0.000000      6.000000
 -0.250000  0.416667  0.000000      6.000000
  0.291667  0.166667  0.000000      6.000000
 -0.291667  0.458333  0.000000      6.000000
  0.333333  0.166667  0.000000      6.000000
 -0.333333  0.500000  0.000000      6.000000
  0.375000  0.166667  0.000000      6.000000
 -0.375000 -0.458333  0.000000      6.000000
  0.416667  0.166667  0.000000      6.000000
  0.208333  0.208333  0.000000      6.000000
  0.250000  0.208333  0.000000      6.000000
 -0.250000  0.458333  0.000000      6.000000
  0.291667  0.208333  0.000000      6.000000
 -0.291667  0.500000  0.000000      6.000000
  0.333333  0.208333  0.000000      6.000000
 -0.333333 -0.458333  0.000000      6.000000
  0.375000  0.208333  0.000000      6.000000
 -0.375000 -0.416667  0.000000      6.000000
  0.250000  0.250000  0.000000      6.000000
  0.291667  0.250000  0.000000      6.000000
 -0.291667 -0.458333  0.000000      6.000000
  0.333333  0.250000  0.000000      6.000000
 -0.333333 -0.416667  0.000000      6.000000
  0.375000  0.250000  0.000000      6.000000
  0.291667  0.291667  0.000000      6.000000
  0.333333  0.291667  0.000000      6.000000
 -0.333333 -0.375000  0.000000      6.000000
  0.333333  0.333333  0.000000      2.000000
 
 Following cartesian coordinates:
            Coordinates               Weight
  0.000000  0.000000  0.000000      1.000000
  0.006850  0.003955  0.000000      6.000000
  0.013701  0.007910  0.000000      6.000000
  0.020551  0.011865  0.000000      6.000000
  0.027401  0.015820  0.000000      6.000000
  0.034252  0.019775  0.000000      6.000000
  0.041102  0.023730  0.000000      6.000000
  0.047952  0.027685  0.000000      6.000000
  0.054803  0.031640  0.000000      6.000000
  0.061653  0.035595  0.000000      6.000000
  0.068503  0.039551  0.000000      6.000000
  0.075354  0.043506  0.000000      6.000000
  0.082204  0.047461  0.000000      3.000000
  0.006850  0.011865  0.000000      6.000000
  0.013701  0.015820  0.000000      6.000000
 -0.013701  0.015820  0.000000      6.000000
  0.020551  0.019775  0.000000      6.000000
 -0.020551  0.019775  0.000000      6.000000
  0.027401  0.023730  0.000000      6.000000
 -0.027401  0.023730  0.000000      6.000000
  0.034252  0.027685  0.000000      6.000000
 -0.034252  0.027685  0.000000      6.000000
  0.041102  0.031640  0.000000      6.000000
 -0.041102  0.031640  0.000000      6.000000
  0.047952  0.035595  0.000000      6.000000
 -0.047952  0.035595  0.000000      6.000000
  0.054803  0.039551  0.000000      6.000000
 -0.054803  0.039551  0.000000      6.000000
  0.061653  0.043506  0.000000      6.000000
 -0.061653  0.043506  0.000000      6.000000
  0.068503  0.047461  0.000000      6.000000
 -0.068503  0.047461  0.000000      6.000000
  0.075354  0.051416  0.000000      6.000000
 -0.075354  0.051416  0.000000      6.000000
  0.013701  0.023730  0.000000      6.000000
  0.020551  0.027685  0.000000      6.000000
 -0.020551  0.027685  0.000000      6.000000
  0.027401  0.031640  0.000000      6.000000
 -0.027401  0.031640  0.000000      6.000000
  0.034252  0.035595  0.000000      6.000000
 -0.034252  0.035595  0.000000      6.000000
  0.041102  0.039551  0.000000      6.000000
 -0.041102  0.039551  0.000000      6.000000
  0.047952  0.043506  0.000000      6.000000
 -0.047952  0.043506  0.000000      6.000000
  0.054803  0.047461  0.000000      6.000000
 -0.054803  0.047461  0.000000      6.000000
  0.061653  0.051416  0.000000      6.000000
 -0.061653  0.051416  0.000000      6.000000
  0.068503  0.055371  0.000000      6.000000
 -0.068503  0.055371  0.000000      6.000000
  0.075354  0.059326  0.000000      6.000000
  0.020551  0.035595  0.000000      6.000000
  0.027401  0.039551  0.000000      6.000000
 -0.027401  0.039551  0.000000      6.000000
  0.034252  0.043506  0.000000      6.000000
 -0.034252  0.043506  0.000000      6.000000
  0.041102  0.047461  0.000000      6.000000
 -0.041102  0.047461  0.000000      6.000000
  0.047952  0.051416  0.000000      6.000000
 -0.047952  0.051416  0.000000      6.000000
  0.054803  0.055371  0.000000      6.000000
 -0.054803  0.055371  0.000000      6.000000
  0.061653  0.059326  0.000000      6.000000
 -0.061653  0.059326  0.000000      6.000000
  0.068503  0.063281  0.000000      6.000000
 -0.068503 -0.126562  0.000000      6.000000
  0.027401  0.047461  0.000000      6.000000
  0.034252  0.051416  0.000000      6.000000
 -0.034252  0.051416  0.000000      6.000000
  0.041102  0.055371  0.000000      6.000000
 -0.041102  0.055371  0.000000      6.000000
  0.047952  0.059326  0.000000      6.000000
 -0.047952  0.059326  0.000000      6.000000
  0.054803  0.063281  0.000000      6.000000
 -0.054803  0.063281  0.000000      6.000000
  0.061653  0.067236  0.000000      6.000000
 -0.061653 -0.122607  0.000000      6.000000
  0.068503  0.071191  0.000000      6.000000
  0.034252  0.059326  0.000000      6.000000
  0.041102  0.063281  0.000000      6.000000
 -0.041102  0.063281  0.000000      6.000000
  0.047952  0.067236  0.000000      6.000000
 -0.047952  0.067236  0.000000      6.000000
  0.054803  0.071191  0.000000      6.000000
 -0.054803 -0.118652  0.000000      6.000000
  0.061653  0.075146  0.000000      6.000000
 -0.061653 -0.114697  0.000000      6.000000
  0.041102  0.071191  0.000000      6.000000
  0.047952  0.075146  0.000000      6.000000
 -0.047952 -0.114697  0.000000      6.000000
  0.054803  0.079101  0.000000      6.000000
 -0.054803 -0.110741  0.000000      6.000000
  0.061653  0.083056  0.000000      6.000000
  0.047952  0.083056  0.000000      6.000000
  0.054803  0.087011  0.000000      6.000000
 -0.054803 -0.102831  0.000000      6.000000
  0.054803  0.094921  0.000000      2.000000
 


--------------------------------------------------------------------------------------------------------




 Dimension of arrays:
   k-points           NKPTS =     98   k-points in BZ     NKDIM =     98   number of bands    NBANDS=     40
   number of dos      NEDOS =    301   number of ions     NIONS =      8
   non local maximal  LDIM  =      6   non local SUM 2l+1 LMDIM =     18
   total plane-waves  NPLWV = 322560
   max r-space proj   IRMAX =      1   max aug-charges    IRDMAX=  20447
   dimension x,y,z NGX =    48 NGY =   48 NGZ =  140
   dimension x,y,z NGXF=    96 NGYF=   96 NGZF=  280
   support grid    NGXF=    96 NGYF=   96 NGZF=  280
   ions per type =               2   6
   NGX,Y,Z   is equivalent  to a cutoff of  13.12, 13.12, 13.14 a.u.
   NGXF,Y,Z  is equivalent  to a cutoff of  26.24, 26.24, 26.28 a.u.

 SYSTEM =  unknown system                          
 POSCAR =  Fe Cl                                   

 Startparameter for this run:
   NWRITE =      2    write-flag & timer
   PREC   = accura    normal or accurate (medium, high low for compatibility)
   ISTART =      0    job   : 0-new  1-cont  2-samecut
   ICHARG =      2    charge: 1-file 2-atom 10-const
   ISPIN  =      2    spin polarized calculation?
   LNONCOLLINEAR =      F non collinear calculations
   LSORBIT =      F    spin-orbit coupling
   INIWAV =      1    electr: 0-lowe 1-rand  2-diag
   LASPH  =      F    aspherical Exc in radial PAW
 Electronic Relaxation 1
   ENCUT  =  520.0 eV  38.22 Ry    6.18 a.u.  11.31 11.31 32.93*2*pi/ulx,y,z
   ENINI  =  520.0     initial cutoff
   ENAUG  =  511.4 eV  augmentation charge cutoff
   NELM   =     60;   NELMIN=  2; NELMDL=  0     # of ELM steps 
   EDIFF  = 0.1E-04   stopping-criterion for ELM
   LREAL  =      F    real-space projection
   NLSPLINE    = F    spline interpolate recip. space projectors
   LCOMPAT=      F    compatible to vasp.4.4
   GGA_COMPAT  = T    GGA compatible to vasp.4.4-vasp.4.6
   LMAXPAW     = -100 max onsite density
   LMAXMIX     =    2 max onsite mixed and CHGCAR
   VOSKOWN=      0    Vosko Wilk Nusair interpolation
   ROPT   =    0.00000   0.00000
 Ionic relaxation
   EDIFFG = 0.1E-03   stopping-criterion for IOM
   NSW    =    300    number of steps for IOM
   NBLOCK =      1;   KBLOCK =    300    inner block; outer block 
   IBRION =      2    ionic relax: 0-MD 1-quasi-New 2-CG
   NFREE  =      1    steps in history (QN), initial steepest desc. (CG)
   ISIF   =      3    stress and relaxation
   IWAVPR =     11    prediction:  0-non 1-charg 2-wave 3-comb
   ISYM   =      2    0-nonsym 1-usesym 2-fastsym
   LCORR  =      T    Harris-Foulkes like correction to forces

   POTIM  = 0.5000    time-step for ionic-motion
   TEIN   =    0.0    initial temperature
   TEBEG  =    0.0;   TEEND  =   0.0 temperature during run
   SMASS  =  -3.00    Nose mass-parameter (am)
   estimated Nose-frequenzy (Omega)   =  0.10E-29 period in steps = 0.13E+47 mass=  -0.845E-27a.u.
   SCALEE = 1.0000    scale energy and forces
   NPACO  =    256;   APACO  = 10.0  distance and # of slots for P.C.
   PSTRESS=    0.0 pullay stress

  Mass of Ions in am
   POMASS =  55.85 35.45
  Ionic Valenz
   ZVAL   =   8.00  7.00
  Atomic Wigner-Seitz radii
   RWIGS  =  -1.00 -1.00
  virtual crystal weights 
   VCA    =   1.00  1.00
   NELECT =      58.0000    total number of electrons
   NUPDOWN=      -1.0000    fix difference up-down

 DOS related values:
   EMIN   =  10.00;   EMAX   =-10.00  energy-range for DOS
   EFERMI =   0.00;   METHOD = LEGACY      
   ISMEAR =     0;   SIGMA  =   0.05  broadening in eV -4-tet -1-fermi 0-gaus

 Electronic relaxation 2 (details)
   IALGO  =     38    algorithm
   LDIAG  =      T    sub-space diagonalisation (order eigenvalues)
   LSUBROT=      F    optimize rotation matrix (better conditioning)
   TURBO    =      0    0=normal 1=particle mesh
   IRESTART =      0    0=no restart 2=restart with 2 vectors
   NREBOOT  =      0    no. of reboots
   NMIN     =      0    reboot dimension
   EREF     =   0.00    reference energy to select bands
   IMIX   =      4    mixing-type and parameters
     AMIX     =   0.40;   BMIX     =  1.00
     AMIX_MAG =   1.60;   BMIX_MAG =  1.00
     AMIN     =   0.10
     WC   =   100.;   INIMIX=   1;  MIXPRE=   1;  MAXMIX= -45

 Intra band minimization:
   WEIMIN = 0.0010     energy-eigenvalue tresh-hold
   EBREAK =  0.63E-07  absolut break condition
   DEPER  =   0.30     relativ break condition  

   TIME   =   0.40     timestep for ELM

  volume/ion in A,a.u.               =      70.93       478.65
  Fermi-wavevector in a.u.,A,eV,Ry     =   0.765442  1.446476  7.971681  0.585902
  Thomas-Fermi vector in A             =   1.865564
 
 Write flags
   LWAVE        =      F    write WAVECAR
   LDOWNSAMPLE  =      F    k-point downsampling of WAVECAR
   LCHARG       =      F    write CHGCAR
   LVTOT        =      F    write LOCPOT, total local potential
   LVHAR        =      F    write LOCPOT, Hartree potential only
   LELF         =      F    write electronic localiz. function (ELF)
   LORBIT       =      0    0 simple, 1 ext, 2 COOP (PROOUT), +10 PAW based schemes


 Dipole corrections
   LMONO  =      F    monopole corrections only (constant potential shift)
   LDIPOL =      F    correct potential (dipole corrections)
   IDIPOL =      0    1-x, 2-y, 3-z, 4-all directions 
   EPSILON=  1.0000000 bulk dielectric constant

 LDA+U is selected, type is set to LDAUTYPE =  2
   angular momentum for each species LDAUL =     2   -1
   U (eV)           for each species LDAUU =   4.5  0.0
   J (eV)           for each species LDAUJ =   0.9  0.0
 Exchange correlation treatment:
   GGA     =    --    GGA type
   LEXCH   =     8    internal setting for exchange type
   LIBXC   =     F    Libxc                    
   VOSKOWN =     0    Vosko Wilk Nusair interpolation
   LHFCALC =     F    Hartree Fock is set to
   LHFONE  =     F    Hartree Fock one center treatment
   AEXX    =    0.0000 exact exchange contribution

 Linear response parameters
   LEPSILON=     F    determine dielectric tensor
   LRPA    =     F    only Hartree local field effects (RPA)
   LNABLA  =     F    use nabla operator in PAW spheres
   LVEL    =     F    velocity operator in full k-point grid
   CSHIFT  =0.1000    complex shift for real part using Kramers Kronig
   OMEGAMAX=  -1.0    maximum frequency
   DEG_THRESHOLD= 0.2000000E-02 threshold for treating states as degnerate
   RTIME   =   -0.100 relaxation time in fs
  (WPLASMAI=    0.000 imaginary part of plasma frequency in eV, 0.658/RTIME)
   DFIELD  = 0.0000000 0.0000000 0.0000000 field for delta impulse in time
 
  Optional k-point grid parameters
   LKPOINTS_OPT  =     F    use optional k-point grid
   KPOINTS_OPT_MODE=     1    mode for optional k-point grid
 
 Orbital magnetization related:
   ORBITALMAG=     F  switch on orbital magnetization
   LCHIMAG   =     F  perturbation theory with respect to B field
   DQ        =  0.001000  dq finite difference perturbation B field
   LLRAUG    =     F  two centre corrections for induced B field
   LBONE     =     F  B-component reconstruction in AE one-centre
   LVGVCALC  =     T  calculate vGv susceptibility
   LVGVAPPL  =     F  apply vGv susceptibility instead of pGv for G=0

 Random number generation:
   RANDOM_GENERATOR = DEFAULT
   PCG_SEED         = not used


--------------------------------------------------------------------------------------------------------


 conjugate gradient relaxation of ions
 charge density and potential will be updated during run
 spin polarized calculation
 Variant of blocked Davidson
 Davidson routine will perform the subspace rotation
 perform sub-space diagonalisation
    after iterative eigenvector-optimisation
 modified Broyden-mixing scheme, WC =      100.0
 initial mixing is a Kerker type mixing with AMIX =  0.4000 and BMIX =      1.0000
 Hartree-type preconditioning will be used
 using additional bands            11
 reciprocal scheme for non local part
 use partial core corrections
 calculate Harris-corrections to forces 
   (improved forces if not selfconsistent)
 use gradient corrections 
 use of overlap-Matrix (Vanderbilt PP)
 Gauss-broadening in eV      SIGMA  =   0.05


--------------------------------------------------------------------------------------------------------


  energy-cutoff  :      520.00
  volume of cell :      567.43
      direct lattice vectors                 reciprocal lattice vectors
     6.082416379  0.000000000  0.000000000     0.164408343  0.094921260 -0.000000000
    -3.041208185  5.267523853  0.000000000     0.000000000  0.189842520  0.000000000
     0.000000000  0.000000000 17.710560371     0.000000000 -0.000000000  0.056463487

  length of vectors
     6.082416379  6.082413564 17.710560371     0.189842432  0.189842520  0.056463487


 
 k-points in units of 2pi/SCALE and weight: Automatic mesh                          
   0.00000000  0.00000000  0.00000000       0.002
   0.00685035  0.00395505  0.00000000       0.010
   0.01370070  0.00791010  0.00000000       0.010
   0.02055104  0.01186516  0.00000000       0.010
   0.02740139  0.01582021  0.00000000       0.010
   0.03425174  0.01977526  0.00000000       0.010
   0.04110209  0.02373031  0.00000000       0.010
   0.04795243  0.02768537  0.00000000       0.010
   0.05480278  0.03164042  0.00000000       0.010
   0.06165313  0.03559547  0.00000000       0.010
   0.06850348  0.03955052  0.00000000       0.010
   0.07535382  0.04350558  0.00000000       0.010
   0.08220417  0.04746063  0.00000000       0.005
   0.00685035  0.01186516  0.00000000       0.010
   0.01370070  0.01582021  0.00000000       0.010
  -0.01370070  0.01582021  0.00000000       0.010
   0.02055104  0.01977526  0.00000000       0.010
  -0.02055104  0.01977526  0.00000000       0.010
   0.02740139  0.02373031  0.00000000       0.010
  -0.02740139  0.02373031  0.00000000       0.010
   0.03425174  0.02768537  0.00000000       0.010
  -0.03425174  0.02768537  0.00000000       0.010
   0.04110209  0.03164042  0.00000000       0.010
  -0.04110209  0.03164042  0.00000000       0.010
   0.04795243  0.03559547  0.00000000       0.010
  -0.04795243  0.03559547  0.00000000       0.010
   0.05480278  0.03955052  0.00000000       0.010
  -0.05480278  0.03955052  0.00000000       0.010
   0.06165313  0.04350558  0.00000000       0.010
  -0.06165313  0.04350558  0.00000000       0.010
   0.06850348  0.04746063  0.00000000       0.010
  -0.06850348  0.04746063  0.00000000       0.010
   0.07535382  0.05141568  0.00000000       0.010
  -0.07535382  0.05141568  0.00000000       0.010
   0.01370070  0.02373031  0.00000000       0.010
   0.02055104  0.02768537  0.00000000       0.010
  -0.02055104  0.02768537  0.00000000       0.010
   0.02740139  0.03164042  0.00000000       0.010
  -0.02740139  0.03164042  0.00000000       0.010
   0.03425174  0.03559547  0.00000000       0.010
  -0.03425174  0.03559547  0.00000000       0.010
   0.04110209  0.03955052  0.00000000       0.010
  -0.04110209  0.03955052  0.00000000       0.010
   0.04795243  0.04350558  0.00000000       0.010
  -0.04795243  0.04350558  0.00000000       0.010
   0.05480278  0.04746063  0.00000000       0.010
  -0.05480278  0.04746063  0.00000000       0.010
   0.06165313  0.05141568  0.00000000       0.010
  -0.06165313  0.05141568  0.00000000       0.010
   0.06850348  0.05537073  0.00000000       0.010
  -0.06850348  0.05537073  0.00000000       0.010
   0.07535382  0.05932579  0.00000000       0.010
   0.02055104  0.03559547  0.00000000       0.010
   0.02740139  0.03955052  0.00000000       0.010
  -0.02740139  0.03955052  0.00000000       0.010
   0.03425174  0.04350558  0.00000000       0.010
  -0.03425174  0.04350558  0.00000000       0.010
   0.04110209  0.04746063  0.00000000       0.010
  -0.04110209  0.04746063  0.00000000       0.010
   0.04795243  0.05141568  0.00000000       0.010
  -0.04795243  0.05141568  0.00000000       0.010
   0.05480278  0.05537073  0.00000000       0.010
  -0.05480278  0.05537073  0.00000000       0.010
   0.06165313  0.05932579  0.00000000       0.010
  -0.06165313  0.05932579  0.00000000       0.010
   0.06850348  0.06328084  0.00000000       0.010
  -0.06850348 -0.12656168  0.00000000       0.010
   0.02740139  0.04746063  0.00000000       0.010
   0.03425174  0.05141568  0.00000000       0.010
  -0.03425174  0.05141568  0.00000000       0.010
   0.04110209  0.05537073  0.00000000       0.010
  -0.04110209  0.05537073  0.00000000       0.010
   0.04795243  0.05932579  0.00000000       0.010
  -0.04795243  0.05932579  0.00000000       0.010
   0.05480278  0.06328084  0.00000000       0.010
  -0.05480278  0.06328084  0.00000000       0.010
   0.06165313  0.06723589  0.00000000       0.010
  -0.06165313 -0.12260663  0.00000000       0.010
   0.06850348  0.07119094  0.00000000       0.010
   0.03425174  0.05932579  0.00000000       0.010
   0.04110209  0.06328084  0.00000000       0.010
  -0.04110209  0.06328084  0.00000000       0.010
   0.04795243  0.06723589  0.00000000       0.010
  -0.04795243  0.06723589  0.00000000       0.010
   0.05480278  0.07119094  0.00000000       0.010
  -0.05480278 -0.11865157  0.00000000       0.010
   0.06165313  0.07514600  0.00000000       0.010
  -0.06165313 -0.11469652  0.00000000       0.010
   0.04110209  0.07119094  0.00000000       0.010
   0.04795243  0.07514600  0.00000000       0.010
  -0.04795243 -0.11469652  0.00000000       0.010
   0.05480278  0.07910105  0.00000000       0.010
  -0.05480278 -0.11074147  0.00000000       0.010
   0.06165313  0.08305610  0.00000000       0.010
   0.04795243  0.08305610  0.00000000       0.010
   0.05480278  0.08701115  0.00000000       0.010
  -0.05480278 -0.10283136  0.00000000       0.010
   0.05480278  0.09492126  0.00000000       0.003
 
 k-points in reciprocal lattice and weights: Automatic mesh                          
   0.00000000  0.00000000  0.00000000       0.002
   0.04166667  0.00000000  0.00000000       0.010
   0.08333333  0.00000000  0.00000000       0.010
   0.12500000  0.00000000  0.00000000       0.010
   0.16666667  0.00000000  0.00000000       0.010
   0.20833333  0.00000000  0.00000000       0.010
   0.25000000  0.00000000  0.00000000       0.010
   0.29166667  0.00000000  0.00000000       0.010
   0.33333333  0.00000000  0.00000000       0.010
   0.37500000  0.00000000  0.00000000       0.010
   0.41666667  0.00000000  0.00000000       0.010
   0.45833333  0.00000000  0.00000000       0.010
   0.50000000  0.00000000  0.00000000       0.005
   0.04166667  0.04166667  0.00000000       0.010
   0.08333333  0.04166667  0.00000000       0.010
  -0.08333333  0.12500000  0.00000000       0.010
   0.12500000  0.04166667  0.00000000       0.010
  -0.12500000  0.16666667  0.00000000       0.010
   0.16666667  0.04166667  0.00000000       0.010
  -0.16666667  0.20833333  0.00000000       0.010
   0.20833333  0.04166667  0.00000000       0.010
  -0.20833333  0.25000000  0.00000000       0.010
   0.25000000  0.04166667  0.00000000       0.010
  -0.25000000  0.29166667  0.00000000       0.010
   0.29166667  0.04166667  0.00000000       0.010
  -0.29166667  0.33333333  0.00000000       0.010
   0.33333333  0.04166667  0.00000000       0.010
  -0.33333333  0.37500000  0.00000000       0.010
   0.37500000  0.04166667  0.00000000       0.010
  -0.37500000  0.41666667  0.00000000       0.010
   0.41666667  0.04166667  0.00000000       0.010
  -0.41666667  0.45833333  0.00000000       0.010
   0.45833333  0.04166667  0.00000000       0.010
  -0.45833333  0.50000000  0.00000000       0.010
   0.08333333  0.08333333  0.00000000       0.010
   0.12500000  0.08333333  0.00000000       0.010
  -0.12500000  0.20833333  0.00000000       0.010
   0.16666667  0.08333333  0.00000000       0.010
  -0.16666667  0.25000000  0.00000000       0.010
   0.20833333  0.08333333  0.00000000       0.010
  -0.20833333  0.29166667  0.00000000       0.010
   0.25000000  0.08333333  0.00000000       0.010
  -0.25000000  0.33333333  0.00000000       0.010
   0.29166667  0.08333333  0.00000000       0.010
  -0.29166667  0.37500000  0.00000000       0.010
   0.33333333  0.08333333  0.00000000       0.010
  -0.33333333  0.41666667  0.00000000       0.010
   0.37500000  0.08333333  0.00000000       0.010
  -0.37500000  0.45833333  0.00000000       0.010
   0.41666667  0.08333333  0.00000000       0.010
  -0.41666667  0.50000000  0.00000000       0.010
   0.45833333  0.08333333  0.00000000       0.010
   0.12500000  0.12500000  0.00000000       0.010
   0.16666667  0.12500000  0.00000000       0.010
  -0.16666667  0.29166667  0.00000000       0.010
   0.20833333  0.12500000  0.00000000       0.010
  -0.20833333  0.33333333  0.00000000       0.010
   0.25000000  0.12500000  0.00000000       0.010
  -0.25000000  0.37500000  0.00000000       0.010
   0.29166667  0.12500000  0.00000000       0.010
  -0.29166667  0.41666667  0.00000000       0.010
   0.33333333  0.12500000  0.00000000       0.010
  -0.33333333  0.45833333  0.00000000       0.010
   0.37500000  0.12500000  0.00000000       0.010
  -0.37500000  0.50000000  0.00000000       0.010
   0.41666667  0.12500000  0.00000000       0.010
  -0.41666667 -0.45833333  0.00000000       0.010
   0.16666667  0.16666667  0.00000000       0.010
   0.20833333  0.16666667  0.00000000       0.010
  -0.20833333  0.37500000  0.00000000       0.010
   0.25000000  0.16666667  0.00000000       0.010
  -0.25000000  0.41666667  0.00000000       0.010
   0.29166667  0.16666667  0.00000000       0.010
  -0.29166667  0.45833333  0.00000000       0.010
   0.33333333  0.16666667  0.00000000       0.010
  -0.33333333  0.50000000  0.00000000       0.010
   0.37500000  0.16666667  0.00000000       0.010
  -0.37500000 -0.45833333  0.00000000       0.010
   0.41666667  0.16666667  0.00000000       0.010
   0.20833333  0.20833333  0.00000000       0.010
   0.25000000  0.20833333  0.00000000       0.010
  -0.25000000  0.45833333  0.00000000       0.010
   0.29166667  0.20833333  0.00000000       0.010
  -0.29166667  0.50000000  0.00000000       0.010
   0.33333333  0.20833333  0.00000000       0.010
  -0.33333333 -0.45833333  0.00000000       0.010
   0.37500000  0.20833333  0.00000000       0.010
  -0.37500000 -0.41666667  0.00000000       0.010
   0.25000000  0.25000000  0.00000000       0.010
   0.29166667  0.25000000  0.00000000       0.010
  -0.29166667 -0.45833333  0.00000000       0.010
   0.33333333  0.25000000  0.00000000       0.010
  -0.33333333 -0.41666667  0.00000000       0.010
   0.37500000  0.25000000  0.00000000       0.010
   0.29166667  0.29166667  0.00000000       0.010
   0.33333333  0.29166667  0.00000000       0.010
  -0.33333333 -0.37500000  0.00000000       0.010
   0.33333333  0.33333333  0.00000000       0.003
 
 position of ions in fractional coordinates (direct lattice) 
   0.00000091  0.99999936  0.36277363
   0.66666586  0.33333388  0.36252395
   0.97814142  0.66654187  0.44036475
   0.33345789  0.31159991  0.44036384
   0.68839815  0.02186147  0.44036425
   0.97823501  0.31144408  0.28496043
   0.68855509  0.66679506  0.28496134
   0.33320571  0.02176436  0.28495905
 
 position of ions in cartesian coordinates  (Angst):
  -3.04120068  5.26752049  6.42492423
   3.04120165  1.75584415  6.42050234
   3.92237079  3.51102518  7.79910656
   1.08058955  1.64135995  7.79909037
   4.12063891  0.11515581  7.79909772
   5.00286635  1.64053913  5.04680896
   2.16021614  3.51235889  5.04682494
   1.96050590  0.11464429  5.04678454
 


--------------------------------------------------------------------------------------------------------


 k-point   1 :   0.0000 0.0000 0.0000  plane waves:   15329
 k-point   2 :   0.0417 0.0000 0.0000  plane waves:   15307
 k-point   3 :   0.0833 0.0000 0.0000  plane waves:   15299
 k-point   4 :   0.1250 0.0000 0.0000  plane waves:   15289
 k-point   5 :   0.1667 0.0000 0.0000  plane waves:   15283
 k-point   6 :   0.2083 0.0000 0.0000  plane waves:   15284
 k-point   7 :   0.2500 0.0000 0.0000  plane waves:   15276
 k-point   8 :   0.2917 0.0000 0.0000  plane waves:   15274
 k-point   9 :   0.3333 0.0000 0.0000  plane waves:   15262
 k-point  10 :   0.3750 0.0000 0.0000  plane waves:   15270
 k-point  11 :   0.4167 0.0000 0.0000  plane waves:   15266
 k-point  12 :   0.4583 0.0000 0.0000  plane waves:   15262
 k-point  13 :   0.5000 0.0000 0.0000  plane waves:   15248
 k-point  14 :   0.0417 0.0417 0.0000  plane waves:   15311
 k-point  15 :   0.0833 0.0417 0.0000  plane waves:   15301
 k-point  16 :  -0.0833 0.1250 0.0000  plane waves:   15301
 k-point  17 :   0.1250 0.0417 0.0000  plane waves:   15276
 k-point  18 :  -0.1250 0.1667 0.0000  plane waves:   15276
 k-point  19 :   0.1667 0.0417 0.0000  plane waves:   15279
 k-point  20 :  -0.1667 0.2083 0.0000  plane waves:   15279
 k-point  21 :   0.2083 0.0417 0.0000  plane waves:   15287
 k-point  22 :  -0.2083 0.2500 0.0000  plane waves:   15287
 k-point  23 :   0.2500 0.0417 0.0000  plane waves:   15270
 k-point  24 :  -0.2500 0.2917 0.0000  plane waves:   15270
 k-point  25 :   0.2917 0.0417 0.0000  plane waves:   15262
 k-point  26 :  -0.2917 0.3333 0.0000  plane waves:   15262
 k-point  27 :   0.3333 0.0417 0.0000  plane waves:   15252
 k-point  28 :  -0.3333 0.3750 0.0000  plane waves:   15252
 k-point  29 :   0.3750 0.0417 0.0000  plane waves:   15270
 k-point  30 :  -0.3750 0.4167 0.0000  plane waves:   15270
 k-point  31 :   0.4167 0.0417 0.0000  plane waves:   15288
 k-point  32 :  -0.4167 0.4583 0.0000  plane waves:   15288
 k-point  33 :   0.4583 0.0417 0.0000  plane waves:   15259
 k-point  34 :  -0.4583 0.5000 0.0000  plane waves:   15259
 k-point  35 :   0.0833 0.0833 0.0000  plane waves:   15301
 k-point  36 :   0.1250 0.0833 0.0000  plane waves:   15298
 k-point  37 :  -0.1250 0.2083 0.0000  plane waves:   15298
 k-point  38 :   0.1667 0.0833 0.0000  plane waves:   15290
 k-point  39 :  -0.1667 0.2500 0.0000  plane waves:   15290
 k-point  40 :   0.2083 0.0833 0.0000  plane waves:   15271
 k-point  41 :  -0.2083 0.2917 0.0000  plane waves:   15271
 k-point  42 :   0.2500 0.0833 0.0000  plane waves:   15256
 k-point  43 :  -0.2500 0.3333 0.0000  plane waves:   15256
 k-point  44 :   0.2917 0.0833 0.0000  plane waves:   15261
 k-point  45 :  -0.2917 0.3750 0.0000  plane waves:   15261
 k-point  46 :   0.3333 0.0833 0.0000  plane waves:   15265
 k-point  47 :  -0.3333 0.4167 0.0000  plane waves:   15265
 k-point  48 :   0.3750 0.0833 0.0000  plane waves:   15275
 k-point  49 :  -0.3750 0.4583 0.0000  plane waves:   15275
 k-point  50 :   0.4167 0.0833 0.0000  plane waves:   15263
 k-point  51 :  -0.4167 0.5000 0.0000  plane waves:   15263
 k-point  52 :   0.4583 0.0833 0.0000  plane waves:   15266
 k-point  53 :   0.1250 0.1250 0.0000  plane waves:   15277
 k-point  54 :   0.1667 0.1250 0.0000  plane waves:   15283
 k-point  55 :  -0.1667 0.2917 0.0000  plane waves:   15283
 k-point  56 :   0.2083 0.1250 0.0000  plane waves:   15262
 k-point  57 :  -0.2083 0.3333 0.0000  plane waves:   15262
 k-point  58 :   0.2500 0.1250 0.0000  plane waves:   15278
 k-point  59 :  -0.2500 0.3750 0.0000  plane waves:   15278
 k-point  60 :   0.2917 0.1250 0.0000  plane waves:   15274
 k-point  61 :  -0.2917 0.4167 0.0000  plane waves:   15274
 k-point  62 :   0.3333 0.1250 0.0000  plane waves:   15273
 k-point  63 :  -0.3333 0.4583 0.0000  plane waves:   15273
 k-point  64 :   0.3750 0.1250 0.0000  plane waves:   15282
 k-point  65 :  -0.3750 0.5000 0.0000  plane waves:   15282
 k-point  66 :   0.4167 0.1250 0.0000  plane waves:   15278
 k-point  67 :  -0.4167-0.4583 0.0000  plane waves:   15278
 k-point  68 :   0.1667 0.1667 0.0000  plane waves:   15281
 k-point  69 :   0.2083 0.1667 0.0000  plane waves:   15275
 k-point  70 :  -0.2083 0.3750 0.0000  plane waves:   15275
 k-point  71 :   0.2500 0.1667 0.0000  plane waves:   15285
 k-point  72 :  -0.2500 0.4167 0.0000  plane waves:   15285
 k-point  73 :   0.2917 0.1667 0.0000  plane waves:   15271
 k-point  74 :  -0.2917 0.4583 0.0000  plane waves:   15271
 k-point  75 :   0.3333 0.1667 0.0000  plane waves:   15288
 k-point  76 :  -0.3333 0.5000 0.0000  plane waves:   15288
 k-point  77 :   0.3750 0.1667 0.0000  plane waves:   15294
 k-point  78 :  -0.3750-0.4583 0.0000  plane waves:   15294
 k-point  79 :   0.4167 0.1667 0.0000  plane waves:   15274
 k-point  80 :   0.2083 0.2083 0.0000  plane waves:   15255
 k-point  81 :   0.2500 0.2083 0.0000  plane waves:   15278
 k-point  82 :  -0.2500 0.4583 0.0000  plane waves:   15278
 k-point  83 :   0.2917 0.2083 0.0000  plane waves:   15280
 k-point  84 :  -0.2917 0.5000 0.0000  plane waves:   15280
 k-point  85 :   0.3333 0.2083 0.0000  plane waves:   15282
 k-point  86 :  -0.3333-0.4583 0.0000  plane waves:   15282
 k-point  87 :   0.3750 0.2083 0.0000  plane waves:   15292
 k-point  88 :  -0.3750-0.4167 0.0000  plane waves:   15292
 k-point  89 :   0.2500 0.2500 0.0000  plane waves:   15269
 k-point  90 :   0.2917 0.2500 0.0000  plane waves:   15273
 k-point  91 :  -0.2917-0.4583 0.0000  plane waves:   15273
 k-point  92 :   0.3333 0.2500 0.0000  plane waves:   15265
 k-point  93 :  -0.3333-0.4167 0.0000  plane waves:   15265
 k-point  94 :   0.3750 0.2500 0.0000  plane waves:   15272
 k-point  95 :   0.2917 0.2917 0.0000  plane waves:   15253
 k-point  96 :   0.3333 0.2917 0.0000  plane waves:   15296
 k-point  97 :  -0.3333-0.3750 0.0000  plane waves:   15296
 k-point  98 :   0.3333 0.3333 0.0000  plane waves:   15279

 maximum and minimum number of plane-waves per node :     15329    15248

 maximum number of plane-waves:     15329
 maximum index in each direction: 
   IXMAX=   11   IYMAX=   11   IZMAX=   32
   IXMIN=  -11   IYMIN=  -11   IZMIN=  -32


 serial   3D FFT for wavefunctions
 parallel 3D FFT for charge:
    minimum data exchange during FFTs selected (reduces bandwidth)


 total amount of memory used by VASP MPI-rank0  2720149. kBytes
=======================================================================

   base      :      30000. kBytes
   nonl-proj :     434607. kBytes
   fftplans  :      88392. kBytes
   grid      :     233496. kBytes
   one-center:        248. kBytes
   wavefun   :    1933406. kBytes
 
     INWAV:  cpu time      0.0001: real time      0.0003
 Broyden mixing: mesh for mixing (old mesh)
   NGX = 23   NGY = 23   NGZ = 65
  (NGX  = 96   NGY  = 96   NGZ  =280)
  gives a total of  34385 points

 initial charge density was supplied:
 charge density of overlapping atoms calculated
 number of electron      58.0000000 magnetization      12.0000000
 keeping initial charge density in first step


--------------------------------------------------------------------------------------------------------


 Maximum index for augmentation-charges         19664 (set IRDMAX)


--------------------------------------------------------------------------------------------------------


 First call to EWALD:  gamma=   0.214
 Maximum number of real-space cells 4x 4x 2
 Maximum number of reciprocal cells 2x 2x 5

    FEWALD:  cpu time      0.0009: real time      0.0009


--------------------------------------- Ionic step        1  -------------------------------------------




--------------------------------------- Iteration      1(   1)  ---------------------------------------


    POTLOK:  cpu time      0.0430: real time      0.0455
    SETDIJ:  cpu time      0.0305: real time      0.0306
     EDDAV:  cpu time      6.7088: real time      6.7210
       DOS:  cpu time      0.0046: real time      0.0046
    --------------------------------------------
      LOOP:  cpu time      6.7869: real time      6.8018

 eigenvalue-minimisations  : 15680
 total energy-change (2. order) : 0.5515396E+03  (-0.2012003E+04)
 number of electron      58.0000000 magnetization      12.0000000
 augmentation part       58.0000000 magnetization      12.0000000

 Free energy of the ion-electron system (eV)
  ---------------------------------------------------
  alpha Z        PSCENC =        36.16485050
  Ewald energy   TEWEN  =      5220.33772128
  -Hartree energ DENC   =     -8542.70764188
  -exchange      EXHF   =         0.00000000
  -V(xc)+E(xc)   XCENC  =       134.75778423
  PAW double counting   =      3052.26160663    -3045.71919405
  entropy T*S    EENTRO =        -0.00534238
  eigenvalues    EBANDS =        49.48314996
  atomic energy  EATOM  =      3646.96668234
  Solvation  Ediel_sol  =         0.00000000
  ---------------------------------------------------
  free energy    TOTEN  =       551.53961661 eV

  energy without entropy =      551.54495900  energy(sigma->0) =      551.54228781


--------------------------------------------------------------------------------------------------------




--------------------------------------- Iteration      1(   2)  ---------------------------------------


     EDDAV:  cpu time      8.3517: real time      8.3668
       DOS:  cpu time      0.0041: real time      0.0041
    --------------------------------------------
      LOOP:  cpu time      8.3558: real time      8.3709

 eigenvalue-minimisations  : 21472
 total energy-change (2. order) :-0.4752789E+03  (-0.4557850E+03)
 number of electron      58.0000000 magnetization      12.0000000
 augmentation part       58.0000000 magnetization      12.0000000

 Free energy of the ion-electron system (eV)
  ---------------------------------------------------
  alpha Z        PSCENC =        36.16485050
  Ewald energy   TEWEN  =      5220.33772128
  -Hartree energ DENC   =     -8542.70764188
  -exchange      EXHF   =         0.00000000
  -V(xc)+E(xc)   XCENC  =       134.75778423
  PAW double counting   =      3052.26160663    -3045.71919405
  entropy T*S    EENTRO =        -0.00006966
  eigenvalues    EBANDS =      -425.80106291
  atomic energy  EATOM  =      3646.96668234
  Solvation  Ediel_sol  =         0.00000000
  ---------------------------------------------------
  free energy    TOTEN  =        76.26067646 eV

  energy without entropy =       76.26074612  energy(sigma->0) =       76.26071129


--------------------------------------------------------------------------------------------------------




--------------------------------------- Iteration      1(   3)  ---------------------------------------


     EDDAV:  cpu time      7.5185: real time      7.5325
       DOS:  cpu time      0.0026: real time      0.0026
    --------------------------------------------
      LOOP:  cpu time      7.5211: real time      7.5351

 eigenvalue-minimisations  : 18848
 total energy-change (2. order) :-0.1117328E+03  (-0.1109482E+03)
 number of electron      58.0000000 magnetization      12.0000000
 augmentation part       58.0000000 magnetization      12.0000000

 Free energy of the ion-electron system (eV)
  ---------------------------------------------------
  alpha Z        PSCENC =        36.16485050
  Ewald energy   TEWEN  =      5220.33772128
  -Hartree energ DENC   =     -8542.70764188
  -exchange      EXHF   =         0.00000000
  -V(xc)+E(xc)   XCENC  =       134.75778423
  PAW double counting   =      3052.26160663    -3045.71919405
  entropy T*S    EENTRO =        -0.00000000
  eigenvalues    EBANDS =      -537.53396570
  atomic energy  EATOM  =      3646.96668234
  Solvation  Ediel_sol  =         0.00000000
  ---------------------------------------------------
  free energy    TOTEN  =       -35.47215667 eV

  energy without entropy =      -35.47215667  energy(sigma->0) =      -35.47215667


--------------------------------------------------------------------------------------------------------




--------------------------------------- Iteration      1(   4)  ---------------------------------------


     EDDAV:  cpu time      8.1258: real time      8.1404
       DOS:  cpu time      0.0026: real time      0.0026
    --------------------------------------------
      LOOP:  cpu time      8.1284: real time      8.1430

 eigenvalue-minimisations  : 20888
 total energy-change (2. order) :-0.4854419E+01  (-0.4842861E+01)
 number of electron      58.0000000 magnetization      12.0000000
 augmentation part       58.0000000 magnetization      12.0000000

 Free energy of the ion-electron system (eV)
  ---------------------------------------------------
  alpha Z        PSCENC =        36.16485050
  Ewald energy   TEWEN  =      5220.33772128
  -Hartree energ DENC   =     -8542.70764188
  -exchange      EXHF   =         0.00000000
  -V(xc)+E(xc)   XCENC  =       134.75778423
  PAW double counting   =      3052.26160663    -3045.71919405
  entropy T*S    EENTRO =        -0.00000000
  eigenvalues    EBANDS =      -542.38838474
  atomic energy  EATOM  =      3646.96668234
  Solvation  Ediel_sol  =         0.00000000
  ---------------------------------------------------
  free energy    TOTEN  =       -40.32657571 eV

  energy without entropy =      -40.32657571  energy(sigma->0) =      -40.32657571


--------------------------------------------------------------------------------------------------------




--------------------------------------- Iteration      1(   5)  ---------------------------------------


     EDDAV:  cpu time      8.4783: real time      8.4934
       DOS:  cpu time      0.0025: real time      0.0025
    CHARGE:  cpu time      0.7991: real time      0.8003
    MIXING:  cpu time      0.0246: real time      0.0246
    --------------------------------------------
      LOOP:  cpu time      9.3045: real time      9.3209

 eigenvalue-minimisations  : 22096
 total energy-change (2. order) :-0.1210473E+00  (-0.1210041E+00)
 number of electron      57.9999995 magnetization      11.6422663
 augmentation part        0.7788326 magnetization       8.1380684

 Broyden mixing:
  rms(total) = 0.23482E+01    rms(broyden)= 0.23481E+01
  rms(prec ) = 0.25575E+01
  weight for this iteration     100.00

 Free energy of the ion-electron system (eV)
  ---------------------------------------------------
  alpha Z        PSCENC =        36.16485050
  Ewald energy   TEWEN  =      5220.33772128
  -Hartree energ DENC   =     -8542.70764188
  -exchange      EXHF   =         0.00000000
  -V(xc)+E(xc)   XCENC  =       134.75778423
  PAW double counting   =      3052.26160663    -3045.71919405
  entropy T*S    EENTRO =        -0.00000000
  eigenvalues    EBANDS =      -542.50943203
  atomic energy  EATOM  =      3646.96668234
  Solvation  Ediel_sol  =         0.00000000
  ---------------------------------------------------
  free energy    TOTEN  =       -40.44762299 eV

  energy without entropy =      -40.44762299  energy(sigma->0) =      -40.44762299


--------------------------------------------------------------------------------------------------------




--------------------------------------- Iteration      1(   6)  ---------------------------------------


    POTLOK:  cpu time      0.0242: real time      0.0245
    SETDIJ:  cpu time      0.0330: real time      0.0331
     EDDAV:  cpu time      8.5344: real time      8.5494
       DOS:  cpu time      0.0048: real time      0.0048
    CHARGE:  cpu time      0.7900: real time      0.7912
    MIXING:  cpu time      0.0233: real time      0.0233
    --------------------------------------------
      LOOP:  cpu time      9.4097: real time      9.4263

 eigenvalue-minimisations  : 22504
 total energy-change (2. order) : 0.1074292E+02  (-0.4209094E+01)
 number of electron      57.9999995 magnetization      11.5923497
 augmentation part        3.6883811 magnetization       6.9476620

 Broyden mixing:
  rms(total) = 0.40738E+01    rms(broyden)= 0.40738E+01
  rms(prec ) = 0.41074E+01
  weight for this iteration     100.00

 eigenvalues of (default mixing * dielectric matrix)
  average eigenvalue GAMMA=   0.0721
  0.0721

 Free energy of the ion-electron system (eV)
  ---------------------------------------------------
  alpha Z        PSCENC =        36.16485050
  Ewald energy   TEWEN  =      5220.33772128
  -Hartree energ DENC   =     -8485.07105423
  -exchange      EXHF   =         0.00000000
  -V(xc)+E(xc)   XCENC  =       134.89011060
  PAW double counting   =      3366.13118118    -3355.71112625
  entropy T*S    EENTRO =        -0.00152169
  eigenvalues    EBANDS =      -593.41155005
  atomic energy  EATOM  =      3646.96668234
  Solvation  Ediel_sol  =         0.00000000
  ---------------------------------------------------
  free energy    TOTEN  =       -29.70470633 eV

  energy without entropy =      -29.70318464  energy(sigma->0) =      -29.70394549


--------------------------------------------------------------------------------------------------------




--------------------------------------- Iteration      1(   7)  ---------------------------------------


    POTLOK:  cpu time      0.0227: real time      0.0229
    SETDIJ:  cpu time      0.0330: real time      0.0331
     EDDAV:  cpu time      8.2090: real time      8.2235
       DOS:  cpu time      0.0026: real time      0.0026
    CHARGE:  cpu time      0.7890: real time      0.7901
    MIXING:  cpu time      0.0259: real time      0.0260
    --------------------------------------------
      LOOP:  cpu time      9.0822: real time      9.0983

 eigenvalue-minimisations  : 21224
 total energy-change (2. order) :-0.4246116E+00  (-0.8701437E+00)
 number of electron      57.9999995 magnetization      11.3277748
 augmentation part        3.1233647 magnetization       7.2005322

 Broyden mixing:
  rms(total) = 0.28339E+01    rms(broyden)= 0.28339E+01
  rms(prec ) = 0.28483E+01
  weight for this iteration     100.00

 eigenvalues of (default mixing * dielectric matrix)
  average eigenvalue GAMMA=   0.5053
  0.5053  0.5053

 Free energy of the ion-electron system (eV)
  ---------------------------------------------------
  alpha Z        PSCENC =        36.16485050
  Ewald energy   TEWEN  =      5220.33772128
  -Hartree energ DENC   =     -8491.10467194
  -exchange      EXHF   =         0.00000000
  -V(xc)+E(xc)   XCENC  =       134.19707794
  PAW double counting   =      3437.57229937    -3429.60173507
  entropy T*S    EENTRO =        -0.00000000
  eigenvalues    EBANDS =      -584.66154237
  atomic energy  EATOM  =      3646.96668234
  Solvation  Ediel_sol  =         0.00000000
  ---------------------------------------------------
  free energy    TOTEN  =       -30.12931795 eV

  energy without entropy =      -30.12931795  energy(sigma->0) =      -30.12931795


--------------------------------------------------------------------------------------------------------




--------------------------------------- Iteration      1(   8)  ---------------------------------------


    POTLOK:  cpu time      0.0242: real time      0.0245
    SETDIJ:  cpu time      0.0324: real time      0.0325
     EDDAV:  cpu time      8.5720: real time      8.5870
       DOS:  cpu time      0.0026: real time      0.0026
    CHARGE:  cpu time      0.7821: real time      0.7833
    MIXING:  cpu time      0.0270: real time      0.0270
    --------------------------------------------
      LOOP:  cpu time      9.4404: real time      9.4569

 eigenvalue-minimisations  : 22520
 total energy-change (2. order) : 0.5411176E+00  (-0.1225941E+00)
 number of electron      57.9999995 magnetization      10.8230910
 augmentation part        2.9059926 magnetization       6.9679684

 Broyden mixing:
  rms(total) = 0.23094E+01    rms(broyden)= 0.23094E+01
  rms(prec ) = 0.23163E+01
  weight for this iteration     100.00

 eigenvalues of (default mixing * dielectric matrix)
  average eigenvalue GAMMA=   0.8819
  0.3524  0.7733  1.5201

 Free energy of the ion-electron system (eV)
  ---------------------------------------------------
  alpha Z        PSCENC =        36.16485050
  Ewald energy   TEWEN  =      5220.33772128
  -Hartree energ DENC   =     -8482.10849574
  -exchange      EXHF   =         0.00000000
  -V(xc)+E(xc)   XCENC  =       135.63742362
  PAW double counting   =      3849.73665347    -3843.36143883
  entropy T*S    EENTRO =        -0.00000000
  eigenvalues    EBANDS =      -592.96159696
  atomic energy  EATOM  =      3646.96668234
  Solvation  Ediel_sol  =         0.00000000
  ---------------------------------------------------
  free energy    TOTEN  =       -29.58820032 eV

  energy without entropy =      -29.58820032  energy(sigma->0) =      -29.58820032


--------------------------------------------------------------------------------------------------------




--------------------------------------- Iteration      1(   9)  ---------------------------------------


    POTLOK:  cpu time      0.0246: real time      0.0250
    SETDIJ:  cpu time      0.0330: real time      0.0331
     EDDAV:  cpu time      7.7158: real time      7.7293
       DOS:  cpu time      0.0026: real time      0.0026
    CHARGE:  cpu time      0.7824: real time      0.7836
    MIXING:  cpu time      0.0276: real time      0.0276
    --------------------------------------------
      LOOP:  cpu time      8.5859: real time      8.6012

 eigenvalue-minimisations  : 19600
 total energy-change (2. order) : 0.3966373E+00  (-0.7454298E-01)
 number of electron      57.9999995 magnetization      10.7188960
 augmentation part        3.0116155 magnetization       6.7387938

 Broyden mixing:
  rms(total) = 0.12081E+01    rms(broyden)= 0.12081E+01
  rms(prec ) = 0.12363E+01
  weight for this iteration     100.00

 eigenvalues of (default mixing * dielectric matrix)
  average eigenvalue GAMMA=   0.9604
  1.4454  1.4454  0.3832  0.5676

 Free energy of the ion-electron system (eV)
  ---------------------------------------------------
  alpha Z        PSCENC =        36.16485050
  Ewald energy   TEWEN  =      5220.33772128
  -Hartree energ DENC   =     -8469.84739244
  -exchange      EXHF   =         0.00000000
  -V(xc)+E(xc)   XCENC  =       135.80459360
  PAW double counting   =      4442.36697386    -4441.68061951
  entropy T*S    EENTRO =        -0.00000000
  eigenvalues    EBANDS =      -599.30437264
  atomic energy  EATOM  =      3646.96668234
  Solvation  Ediel_sol  =         0.00000000
  ---------------------------------------------------
  free energy    TOTEN  =       -29.19156301 eV

  energy without entropy =      -29.19156301  energy(sigma->0) =      -29.19156301


--------------------------------------------------------------------------------------------------------




--------------------------------------- Iteration      1(  10)  ---------------------------------------


    POTLOK:  cpu time      0.0221: real time      0.0223
    SETDIJ:  cpu time      0.0327: real time      0.0328
     EDDAV:  cpu time      7.7880: real time      7.8020
       DOS:  cpu time      0.0025: real time      0.0025
    CHARGE:  cpu time      0.7813: real time      0.7825
    MIXING:  cpu time      0.0262: real time      0.0263
    --------------------------------------------
      LOOP:  cpu time      8.6529: real time      8.6684

 eigenvalue-minimisations  : 19832
 total energy-change (2. order) :-0.4649481E+00  (-0.1237541E+00)
 number of electron      57.9999995 magnetization      10.6297119
 augmentation part        2.6761551 magnetization       6.7640061

 Broyden mixing:
  rms(total) = 0.45996E+00    rms(broyden)= 0.45995E+00
  rms(prec ) = 0.47030E+00
  weight for this iteration     100.00

 eigenvalues of (default mixing * dielectric matrix)
  average eigenvalue GAMMA=   1.0311
  1.6743  1.6743  0.3758  0.8278  0.6032

 Free energy of the ion-electron system (eV)
  ---------------------------------------------------
  alpha Z        PSCENC =        36.16485050
  Ewald energy   TEWEN  =      5220.33772128
  -Hartree energ DENC   =     -8480.93293438
  -exchange      EXHF   =         0.00000000
  -V(xc)+E(xc)   XCENC  =       134.07448305
  PAW double counting   =      4395.20911244    -4396.60556183
  entropy T*S    EENTRO =        -0.00000000
  eigenvalues    EBANDS =      -584.87086446
  atomic energy  EATOM  =      3646.96668234
  Solvation  Ediel_sol  =         0.00000000
  ---------------------------------------------------
  free energy    TOTEN  =       -29.65651107 eV

  energy without entropy =      -29.65651107  energy(sigma->0) =      -29.65651107


--------------------------------------------------------------------------------------------------------




--------------------------------------- Iteration      1(  11)  ---------------------------------------


    POTLOK:  cpu time      0.0244: real time      0.0247
    SETDIJ:  cpu time      0.0325: real time      0.0325
     EDDAV:  cpu time      8.9204: real time      8.9362
       DOS:  cpu time      0.0026: real time      0.0026
    CHARGE:  cpu time      0.7806: real time      0.7819
    MIXING:  cpu time      0.0289: real time      0.0289
    --------------------------------------------
      LOOP:  cpu time      9.7894: real time      9.8068

 eigenvalue-minimisations  : 23688
 total energy-change (2. order) :-0.1566271E+00  (-0.2714185E-01)
 number of electron      57.9999995 magnetization      10.4039787
 augmentation part        2.4953221 magnetization       6.6297476

 Broyden mixing:
  rms(total) = 0.24841E+00    rms(broyden)= 0.24840E+00
  rms(prec ) = 0.25114E+00
  weight for this iteration     100.00

 eigenvalues of (default mixing * dielectric matrix)
  average eigenvalue GAMMA=   1.1533
  2.4427  1.4151  1.4151  0.3742  0.6363  0.6363

 Free energy of the ion-electron system (eV)
  ---------------------------------------------------
  alpha Z        PSCENC =        36.16485050
  Ewald energy   TEWEN  =      5220.33772128
  -Hartree energ DENC   =     -8487.10734392
  -exchange      EXHF   =         0.00000000
  -V(xc)+E(xc)   XCENC  =       134.01553517
  PAW double counting   =      4357.63009877    -4359.84414902
  entropy T*S    EENTRO =        -0.00000000
  eigenvalues    EBANDS =      -577.97653329
  atomic energy  EATOM  =      3646.96668234
  Solvation  Ediel_sol  =         0.00000000
  ---------------------------------------------------
  free energy    TOTEN  =       -29.81313818 eV

  energy without entropy =      -29.81313818  energy(sigma->0) =      -29.81313818


--------------------------------------------------------------------------------------------------------




--------------------------------------- Iteration      1(  12)  ---------------------------------------


    POTLOK:  cpu time      0.0222: real time      0.0225
    SETDIJ:  cpu time      0.0325: real time      0.0326
     EDDAV:  cpu time      8.7812: real time      8.7970
       DOS:  cpu time      0.0025: real time      0.0025
    CHARGE:  cpu time      0.7819: real time      0.7831
    MIXING:  cpu time      0.0279: real time      0.0279
    --------------------------------------------
      LOOP:  cpu time      9.6482: real time      9.6656

 eigenvalue-minimisations  : 23216
 total energy-change (2. order) :-0.5240693E-01  (-0.1297548E-01)
 number of electron      57.9999995 magnetization      10.3274872
 augmentation part        2.6063765 magnetization       6.4794563

 Broyden mixing:
  rms(total) = 0.17656E+00    rms(broyden)= 0.17656E+00
  rms(prec ) = 0.18419E+00
  weight for this iteration     100.00

 eigenvalues of (default mixing * dielectric matrix)
  average eigenvalue GAMMA=   1.1615
  2.4385  1.5957  1.5957  0.3742  0.7444  0.6908  0.6908

 Free energy of the ion-electron system (eV)
  ---------------------------------------------------
  alpha Z        PSCENC =        36.16485050
  Ewald energy   TEWEN  =      5220.33772128
  -Hartree energ DENC   =     -8487.86325412
  -exchange      EXHF   =         0.00000000
  -V(xc)+E(xc)   XCENC  =       134.19632559
  PAW double counting   =      4422.83546912    -4425.68870878
  entropy T*S    EENTRO =        -0.00000000
  eigenvalues    EBANDS =      -576.81463102
  atomic energy  EATOM  =      3646.96668234
  Solvation  Ediel_sol  =         0.00000000
  ---------------------------------------------------
  free energy    TOTEN  =       -29.86554511 eV

  energy without entropy =      -29.86554511  energy(sigma->0) =      -29.86554511


--------------------------------------------------------------------------------------------------------




--------------------------------------- Iteration      1(  13)  ---------------------------------------


    POTLOK:  cpu time      0.0243: real time      0.0246
    SETDIJ:  cpu time      0.0325: real time      0.0326
     EDDAV:  cpu time      8.5544: real time      8.5701
       DOS:  cpu time      0.0029: real time      0.0029
    CHARGE:  cpu time      0.7850: real time      0.7862
    MIXING:  cpu time      0.0304: real time      0.0305
    --------------------------------------------
      LOOP:  cpu time      9.4297: real time      9.4470

 eigenvalue-minimisations  : 22488
 total energy-change (2. order) :-0.1634103E+00  (-0.7177793E-02)
 number of electron      57.9999995 magnetization      10.2645753
 augmentation part        2.5219164 magnetization       6.4576322

 Broyden mixing:
  rms(total) = 0.34811E-01    rms(broyden)= 0.34805E-01
  rms(prec ) = 0.35292E-01
  weight for this iteration     100.00

 eigenvalues of (default mixing * dielectric matrix)
  average eigenvalue GAMMA=   1.1452
  2.4352  1.6191  1.6191  1.0996  0.3741  0.7450  0.6349  0.6349

 Free energy of the ion-electron system (eV)
  ---------------------------------------------------
  alpha Z        PSCENC =        36.16485050
  Ewald energy   TEWEN  =      5220.33772128
  -Hartree energ DENC   =     -8490.81123795
  -exchange      EXHF   =         0.00000000
  -V(xc)+E(xc)   XCENC  =       133.81015365
  PAW double counting   =      4392.71982607    -4395.75343986
  entropy T*S    EENTRO =        -0.00000000
  eigenvalues    EBANDS =      -573.46351143
  atomic energy  EATOM  =      3646.96668234
  Solvation  Ediel_sol  =         0.00000000
  ---------------------------------------------------
  free energy    TOTEN  =       -30.02895541 eV

  energy without entropy =      -30.02895541  energy(sigma->0) =      -30.02895541


--------------------------------------------------------------------------------------------------------




--------------------------------------- Iteration      1(  14)  ---------------------------------------


    POTLOK:  cpu time      0.0223: real time      0.0226
    SETDIJ:  cpu time      0.0328: real time      0.0329
     EDDAV:  cpu time      8.4504: real time      8.4654
       DOS:  cpu time      0.0026: real time      0.0026
    CHARGE:  cpu time      0.7816: real time      0.7828
    MIXING:  cpu time      0.0299: real time      0.0300
    --------------------------------------------
      LOOP:  cpu time      9.3196: real time      9.3362

 eigenvalue-minimisations  : 22136
 total energy-change (2. order) :-0.6736996E-01  (-0.1415743E-02)
 number of electron      57.9999995 magnetization      10.2235321
 augmentation part        2.5025459 magnetization       6.4246971

 Broyden mixing:
  rms(total) = 0.27552E-01    rms(broyden)= 0.27549E-01
  rms(prec ) = 0.28290E-01
  weight for this iteration     100.00

 eigenvalues of (default mixing * dielectric matrix)
  average eigenvalue GAMMA=   1.1056
  2.5098  1.6428  1.6428  0.3742  0.9145  0.9145  0.6715  0.6715  0.6093

 Free energy of the ion-electron system (eV)
  ---------------------------------------------------
  alpha Z        PSCENC =        36.16485050
  Ewald energy   TEWEN  =      5220.33772128
  -Hartree energ DENC   =     -8491.19120553
  -exchange      EXHF   =         0.00000000
  -V(xc)+E(xc)   XCENC  =       133.73337240
  PAW double counting   =      4383.56438912    -4386.60460338
  entropy T*S    EENTRO =        -0.00000000
  eigenvalues    EBANDS =      -573.06753209
  atomic energy  EATOM  =      3646.96668234
  Solvation  Ediel_sol  =         0.00000000
  ---------------------------------------------------
  free energy    TOTEN  =       -30.09632537 eV

  energy without entropy =      -30.09632537  energy(sigma->0) =      -30.09632537


--------------------------------------------------------------------------------------------------------




--------------------------------------- Iteration      1(  15)  ---------------------------------------


    POTLOK:  cpu time      0.0246: real time      0.0249
    SETDIJ:  cpu time      0.0327: real time      0.0327
     EDDAV:  cpu time      7.3362: real time      7.3493
       DOS:  cpu time      0.0026: real time      0.0026
    CHARGE:  cpu time      0.7857: real time      0.7869
    MIXING:  cpu time      0.0325: real time      0.0326
    --------------------------------------------
      LOOP:  cpu time      8.2143: real time      8.2291

 eigenvalue-minimisations  : 18272
 total energy-change (2. order) :-0.1830611E-01  (-0.2636581E-03)
 number of electron      57.9999995 magnetization      10.1237262
 augmentation part        2.5118227 magnetization       6.3227217

 Broyden mixing:
  rms(total) = 0.21836E-01    rms(broyden)= 0.21836E-01
  rms(prec ) = 0.21979E-01
  weight for this iteration     100.00

 eigenvalues of (default mixing * dielectric matrix)
  average eigenvalue GAMMA=   1.1397
  2.5370  1.6783  1.6783  1.2017  0.9844  0.9844  0.3741  0.6474  0.6474  0.6643

 Free energy of the ion-electron system (eV)
  ---------------------------------------------------
  alpha Z        PSCENC =        36.16485050
  Ewald energy   TEWEN  =      5220.33772128
  -Hartree energ DENC   =     -8490.71082515
  -exchange      EXHF   =         0.00000000
  -V(xc)+E(xc)   XCENC  =       133.72884536
  PAW double counting   =      4382.22514790    -4385.26498087
  entropy T*S    EENTRO =        -0.00000000
  eigenvalues    EBANDS =      -573.56207282
  atomic energy  EATOM  =      3646.96668234
  Solvation  Ediel_sol  =         0.00000000
  ---------------------------------------------------
  free energy    TOTEN  =       -30.11463148 eV

  energy without entropy =      -30.11463148  energy(sigma->0) =      -30.11463148


--------------------------------------------------------------------------------------------------------




--------------------------------------- Iteration      1(  16)  ---------------------------------------


    POTLOK:  cpu time      0.0225: real time      0.0227
    SETDIJ:  cpu time      0.0325: real time      0.0325
     EDDAV:  cpu time      7.2706: real time      7.2837
       DOS:  cpu time      0.0026: real time      0.0026
    CHARGE:  cpu time      0.7829: real time      0.7845
    MIXING:  cpu time      0.0345: real time      0.0345
    --------------------------------------------
      LOOP:  cpu time      8.1456: real time      8.1606

 eigenvalue-minimisations  : 17984
 total energy-change (2. order) :-0.5893686E-01  (-0.7070488E-03)
 number of electron      57.9999995 magnetization      10.0422184
 augmentation part        2.5107163 magnetization       6.2432300

 Broyden mixing:
  rms(total) = 0.15570E-01    rms(broyden)= 0.15570E-01
  rms(prec ) = 0.15782E-01
  weight for this iteration     100.00

[...]
     22      -5.6924      1.00000
     23      -5.4708      1.00000
     24      -5.4643      1.00000
     25      -3.1881      0.00000
     26      -3.1876      0.00000
     27      -3.1195      0.00000
     28      -3.0889      0.00000
     29      -2.9844      0.00000
     30      -2.9199      0.00000
     31      -2.7562      0.00000
     32      -2.6329      0.00000
     33      -2.6204      0.00000
     34      -2.5771      0.00000
     35       2.6587      0.00000
     36       2.7973      0.00000
     37       3.0895      0.00000
     38       3.3812      0.00000
     39       3.4406      0.00000
     40       3.6302      0.00000

 k-point    96 :       0.3333    0.2917    0.0000
  band No.  band energies     occupation 
      1     -18.7137      1.00000
      2     -18.6399      1.00000
      3     -18.3446      1.00000
      4     -18.2085      1.00000
      5     -18.1846      1.00000
      6     -18.1189      1.00000
      7      -8.6483      1.00000
      8      -8.5353      1.00000
      9      -7.9939      1.00000
     10      -7.9430      1.00000
     11      -7.8999      1.00000
     12      -7.5006      1.00000
     13      -7.4849      1.00000
     14      -7.3543      1.00000
     15      -7.2015      1.00000
     16      -6.8089      1.00000
     17      -6.4026      1.00000
     18      -6.2662      1.00000
     19      -6.1972      1.00000
     20      -5.8413      1.00000
     21      -5.7738      1.00000
     22      -5.6902      1.00000
     23      -5.4740      1.00000
     24      -5.4699      1.00000
     25      -3.1799      0.00000
     26      -3.1785      0.00000
     27      -3.1326      0.00000
     28      -3.0982      0.00000
     29      -2.9729      0.00000
     30      -2.9383      0.00000
     31      -2.7549      0.00000
     32      -2.6263      0.00000
     33      -2.6190      0.00000
     34      -2.5706      0.00000
     35       2.6673      0.00000
     36       2.7667      0.00000
     37       3.2026      0.00000
     38       3.3364      0.00000
     39       3.3776      0.00000
     40       3.7578      0.00000

 k-point    97 :      -0.3333   -0.3750    0.0000
  band No.  band energies     occupation 
      1     -18.7138      1.00000
      2     -18.6399      1.00000
      3     -18.3446      1.00000
      4     -18.2085      1.00000
      5     -18.1845      1.00000
      6     -18.1189      1.00000
      7      -8.6483      1.00000
      8      -8.5353      1.00000
      9      -7.9939      1.00000
     10      -7.9430      1.00000
     11      -7.8999      1.00000
     12      -7.5006      1.00000
     13      -7.4849      1.00000
     14      -7.3543      1.00000
     15      -7.2015      1.00000
     16      -6.8089      1.00000
     17      -6.4026      1.00000
     18      -6.2661      1.00000
     19      -6.1972      1.00000
     20      -5.8413      1.00000
     21      -5.7738      1.00000
     22      -5.6902      1.00000
     23      -5.4740      1.00000
     24      -5.4699      1.00000
     25      -3.1799      0.00000
     26      -3.1785      0.00000
     27      -3.1326      0.00000
     28      -3.0982      0.00000
     29      -2.9729      0.00000
     30      -2.9383      0.00000
     31      -2.7549      0.00000
     32      -2.6263      0.00000
     33      -2.6190      0.00000
     34      -2.5706      0.00000
     35       2.6673      0.00000
     36       2.7667      0.00000
     37       3.2026      0.00000
     38       3.3364      0.00000
     39       3.3776      0.00000
     40       3.7578      0.00000

 k-point    98 :       0.3333    0.3333    0.0000
  band No.  band energies     occupation 
      1     -18.6759      1.00000
      2     -18.6759      1.00000
      3     -18.3477      1.00000
      4     -18.1957      1.00000
      5     -18.1957      1.00000
      6     -18.1200      1.00000
      7      -8.5880      1.00000
      8      -8.5879      1.00000
      9      -7.9546      1.00000
     10      -7.9545      1.00000
     11      -7.9363      1.00000
     12      -7.4868      1.00000
     13      -7.4868      1.00000
     14      -7.3547      1.00000
     15      -7.2273      1.00000
     16      -6.8114      1.00000
     17      -6.3656      1.00000
     18      -6.2397      1.00000
     19      -6.2396      1.00000
     20      -5.8034      1.00000
     21      -5.8033      1.00000
     22      -5.6915      1.00000
     23      -5.4761      1.00000
     24      -5.4760      1.00000
     25      -3.1706      0.00000
     26      -3.1706      0.00000
     27      -3.1392      0.00000
     28      -3.1091      0.00000
     29      -2.9583      0.00000
     30      -2.9582      0.00000
     31      -2.7535      0.00000
     32      -2.6208      0.00000
     33      -2.6207      0.00000
     34      -2.5672      0.00000
     35       2.7106      0.00000
     36       2.7106      0.00000
     37       3.2836      0.00000
     38       3.2836      0.00000
     39       3.3526      0.00000
     40       3.8794      0.00000


--------------------------------------------------------------------------------------------------------


 soft charge-density along one line, spin component            1
         0         1         2         3         4         5         6         7         8         9
 total charge-density along one line
 
 soft charge-density along one line, spin component            2
         0         1         2         3         4         5         6         7         8         9
 total charge-density along one line
 
 pseudopotential strength for first ion, spin component:            1
-15.911   0.017   0.000  -0.000   0.000 -16.229   0.013   0.000
  0.017 -15.889  -0.000  -0.000  -0.000   0.013 -16.210  -0.000
  0.000  -0.000 -15.920  -0.000  -0.000   0.000  -0.000 -16.236
 -0.000  -0.000  -0.000 -15.889  -0.017  -0.000  -0.000  -0.000
  0.000  -0.000  -0.000  -0.017 -15.911   0.000  -0.000  -0.000
-16.229   0.013   0.000  -0.000   0.000 -16.528   0.009   0.000
  0.013 -16.210  -0.000  -0.000  -0.000   0.009 -16.512  -0.000
  0.000  -0.000 -16.236  -0.000  -0.000   0.000  -0.000 -16.532
 -0.000  -0.000  -0.000 -16.210  -0.013  -0.000  -0.000  -0.000
  0.000  -0.000  -0.000  -0.013 -16.229   0.000  -0.000  -0.000
  0.000   0.000  -0.001   0.000  -0.000   0.000   0.000  -0.001
  0.000   0.000  -0.001   0.000  -0.000   0.000   0.000  -0.001
  0.000   0.000   0.000  -0.000   0.001   0.000   0.000   0.000
 -0.000  -0.000   0.000   0.000  -0.000  -0.000  -0.000   0.000
  0.001  -0.000  -0.000   0.000  -0.000   0.001  -0.000  -0.000
  0.000   0.000   0.000  -0.000   0.001   0.000   0.000   0.000
 -0.000  -0.000   0.000   0.000  -0.000  -0.000  -0.000   0.000
  0.001  -0.000  -0.000   0.000  -0.000   0.001  -0.000  -0.000
 pseudopotential strength for first ion, spin component:            2
-10.274  -0.525   0.000  -0.000   0.000 -10.629  -0.533   0.000
 -0.525 -10.677  -0.000  -0.000  -0.000  -0.533 -11.037  -0.000
  0.000  -0.000  -9.871  -0.000  -0.000   0.000  -0.000 -10.220
 -0.000  -0.000  -0.000 -10.677   0.525  -0.000  -0.000  -0.000
  0.000  -0.000  -0.000   0.525 -10.274   0.000  -0.000  -0.000
-10.629  -0.533   0.000  -0.000   0.000 -10.934  -0.544   0.000
 -0.533 -11.037  -0.000  -0.000  -0.000  -0.544 -11.351  -0.000
  0.000  -0.000 -10.220  -0.000  -0.000   0.000  -0.000 -10.517
 -0.000  -0.000  -0.000 -11.037   0.533  -0.000  -0.000  -0.000
  0.000  -0.000  -0.000   0.533 -10.629   0.000  -0.000  -0.000
  0.000   0.000  -0.000   0.000  -0.000   0.000   0.000  -0.000
  0.000   0.000  -0.001   0.000  -0.000   0.000   0.000  -0.001
 -0.000   0.000   0.000  -0.000  -0.001  -0.000   0.000   0.000
 -0.000  -0.000   0.000   0.000  -0.000  -0.000  -0.000   0.000
 -0.001  -0.000  -0.000   0.000   0.000  -0.001  -0.000  -0.000
 -0.000   0.000   0.000  -0.000  -0.001  -0.000   0.000   0.000
 -0.000  -0.000   0.000   0.000  -0.000  -0.000  -0.000   0.000
 -0.001  -0.000  -0.000   0.000   0.000  -0.001  -0.000  -0.000
 total augmentation occupancy for first ion, spin component:            1
  7.076   2.390  -0.000   0.003   0.000  -4.909  -2.329   0.000  -0.003  -0.000  -0.000   0.000  -0.003  -0.000  -0.076   0.000
  2.390   8.751  -0.000   0.000   0.003  -2.330  -6.527   0.000  -0.000  -0.003  -0.000   0.000  -0.004  -0.000  -0.003   0.000
 -0.000  -0.000   5.316   0.000  -0.000   0.000   0.000  -3.185  -0.000   0.000   0.035  -0.005   0.000   0.000  -0.000  -0.000
  0.003   0.000   0.000   8.751  -2.390  -0.003   0.000  -0.000  -6.527   2.330  -0.000   0.000   0.003   0.000  -0.004   0.000
  0.000   0.003  -0.000  -2.390   7.076   0.000  -0.003   0.000   2.329  -4.909  -0.000   0.000  -0.076  -0.000   0.003   0.006
 -4.909  -2.330   0.000  -0.003   0.000   3.982   2.402  -0.000   0.003   0.000   0.000  -0.000   0.003   0.000   0.081  -0.000
 -2.329  -6.527   0.000   0.000  -0.003   2.402   5.647  -0.000   0.000   0.003   0.000   0.000   0.004   0.000  -0.001  -0.000
  0.000   0.000  -3.185  -0.000   0.000  -0.000  -0.000   2.194   0.000  -0.000  -0.036   0.005  -0.000  -0.001   0.000   0.000
 -0.003  -0.000  -0.000  -6.527   2.329   0.003   0.000   0.000   5.647  -2.402  -0.000  -0.000   0.001  -0.000   0.004  -0.000
 -0.000  -0.003   0.000   2.330  -4.909   0.000   0.003  -0.000  -2.402   3.982   0.000  -0.000   0.081   0.000  -0.003  -0.008
 -0.000   0.000   0.035  -0.000  -0.000   0.000   0.000  -0.036  -0.000   0.000   1.537  -0.153   0.000   0.001  -0.000   0.000
  0.000   0.000  -0.005   0.000   0.000  -0.000   0.000   0.005  -0.000  -0.000  -0.153   0.032   0.000  -0.000   0.000   0.000
 -0.003  -0.004   0.000   0.003  -0.076   0.003   0.004  -0.000   0.001   0.081   0.000  -0.000   0.232   0.000   0.000  -0.021
 -0.000  -0.000   0.000   0.000  -0.000   0.000  -0.000  -0.001  -0.000   0.000   0.001  -0.000   0.000   0.229  -0.000  -0.000
 -0.076  -0.003  -0.000  -0.004   0.003   0.081  -0.001   0.000   0.004  -0.003  -0.000  -0.000   0.000  -0.000   0.232  -0.000
  0.000   0.000  -0.000   0.000   0.006  -0.000  -0.000   0.000  -0.000  -0.008   0.000   0.000  -0.021  -0.000  -0.000   0.003
 -0.000   0.000   0.000   0.000  -0.000   0.000  -0.000  -0.000  -0.000   0.000  -0.000   0.000  -0.000  -0.020   0.000   0.000
  0.006  -0.000   0.000   0.000  -0.000  -0.008   0.000  -0.000  -0.000   0.000  -0.000   0.000   0.000   0.000  -0.021   0.000
 total augmentation occupancy for first ion, spin component:            2
  6.707   2.089  -0.000   0.003   0.000  -4.345  -1.915   0.000  -0.002   0.000  -0.000  -0.000  -0.001  -0.000  -0.031  -0.000
  2.089   8.192  -0.000   0.000   0.003  -1.914  -5.712   0.000   0.000  -0.002   0.000   0.000  -0.001   0.000   0.003   0.000
 -0.000  -0.000   5.175   0.000  -0.000   0.000   0.000  -2.939  -0.000   0.000   0.005   0.001   0.000   0.000  -0.000   0.000
  0.003   0.000   0.000   8.192  -2.089  -0.002  -0.000  -0.000  -5.712   1.914   0.000   0.000  -0.003   0.000  -0.001   0.000
  0.000   0.003  -0.000  -2.089   6.707  -0.000  -0.002   0.000   1.915  -4.345  -0.000  -0.000  -0.031  -0.000   0.001  -0.001
 -4.345  -1.914   0.000  -0.002  -0.000   2.918   1.621  -0.000   0.002   0.000   0.000   0.000   0.001   0.000   0.022   0.000
 -1.915  -5.712   0.000  -0.000  -0.002   1.621   4.073  -0.000   0.000   0.002   0.000   0.000   0.001  -0.000   0.001  -0.000
  0.000   0.000  -2.939  -0.000   0.000  -0.000  -0.000   1.727   0.000  -0.000  -0.003  -0.001  -0.000  -0.000   0.000  -0.000
 -0.002   0.000  -0.000  -5.712   1.915   0.002   0.000   0.000   4.073  -1.621   0.000  -0.000  -0.001  -0.000   0.001  -0.000
  0.000  -0.002   0.000   1.914  -4.345   0.000   0.002  -0.000  -1.621   2.918   0.000   0.000   0.022   0.000  -0.001   0.001
 -0.000   0.000   0.005   0.000  -0.000   0.000   0.000  -0.003   0.000   0.000  -0.255   0.107   0.000  -0.000   0.000   0.000
 -0.000   0.000   0.001   0.000  -0.000   0.000  -0.000  -0.001  -0.000   0.000   0.107  -0.013   0.000   0.000  -0.000   0.000
 -0.001  -0.001   0.000  -0.003  -0.031   0.001   0.001  -0.000  -0.001   0.022   0.000   0.000  -0.003  -0.000  -0.000   0.007
 -0.000   0.000   0.000   0.000  -0.000   0.000   0.000  -0.000   0.000   0.000  -0.000   0.000  -0.000  -0.005   0.000   0.000
 -0.031   0.003  -0.000  -0.001   0.001   0.022   0.001   0.000   0.001  -0.001   0.000  -0.000  -0.000  -0.000  -0.003   0.000
 -0.000   0.000   0.000   0.000  -0.001   0.000  -0.000  -0.000  -0.000   0.001   0.000  -0.000   0.007   0.000   0.000  -0.001
 -0.000   0.000   0.000   0.000  -0.000   0.000  -0.000  -0.000  -0.000   0.000   0.000  -0.000   0.000   0.006  -0.000  -0.000
 -0.001  -0.000  -0.000   0.000   0.000   0.001   0.000   0.000  -0.000  -0.000  -0.000  -0.000  -0.000   0.000   0.007  -0.000


------------------------ aborting loop because EDIFF is reached ----------------------------------------


    CHARGE:  cpu time      0.9939: real time      0.9956
    FORLOC:  cpu time      0.0080: real time      0.0080
    FORNL :  cpu time      7.0580: real time      7.0678
    STRESS:  cpu time     17.9022: real time     17.9332
    FORCOR:  cpu time      0.0258: real time      0.0258
    FORHAR:  cpu time      0.0058: real time      0.0058
    MIXING:  cpu time      0.0349: real time      0.0350
    OFIELD:  cpu time      0.0000: real time      0.0000

  Number of pair interactions contributing to vdW energy:   33092
  Edisp (eV):   -0.83958
    FORVDW:  cpu time      0.0020: real time      0.0020

  FORCE on cell =-STRESS in cart. coord.  units (eV):
  Direction    XX          YY          ZZ          XY          YZ          ZX
  --------------------------------------------------------------------------------------
  Alpha Z    36.25450    36.25450    36.25450
  Ewald    7102.10756  7102.10949 -9014.28731     0.00176    -0.00038     0.00307
  Hartree  7907.80763  7907.80880 -7356.84025     0.00133     0.00002    -0.00015
  E(xc)    -236.31954  -236.31955  -236.67485    -0.00000    -0.00000    -0.00000
  Local  -16055.58144-16055.58333 15321.92719    -0.00316     0.00017    -0.00200
  n-local   453.46697   453.75754   453.16226    -0.15752     0.05285    -0.03913
  augment   -35.05188   -35.05198   -35.10238    -0.00001     0.00003    -0.00013
  Kinetic   828.64567   827.81237   831.64092     0.17689    -0.08330     0.05405
  Fock        0.00000     0.00000     0.00000     0.00000     0.00000     0.00000
  vdW        -1.00038    -1.00037    -0.04756     0.00000     0.00000    -0.00000
  -------------------------------------------------------------------------------------
  Total       0.05828     0.05828     0.03253    -0.00000    -0.00000     0.00000
  in kB       0.16496     0.16496     0.09209    -0.00000    -0.00000     0.00000
  external pressure =        0.14 kB  Pullay stress =        0.00 kB


 VOLUME and BASIS-vectors are now :
 -----------------------------------------------------------------------------
  energy-cutoff  :      520.00
  volume of cell :      566.03
      direct lattice vectors                 reciprocal lattice vectors
     6.082494099  0.000000017  0.000000000     0.164406242  0.094920047  0.000000000
    -3.041247060  5.267591151  0.000000000    -0.000000001  0.189840094 -0.000000000
    -0.000000000  0.000000000 17.666314915     0.000000000 -0.000000000  0.056604901

  length of vectors
     6.082494099  6.082491284 17.666314915     0.189840006  0.189840094  0.056604901


 FORCES acting on ions
    electron-ion (+dipol)            ewald-force                    non-local-force                 convergence-correction
 -----------------------------------------------------------------------------------------------
   0.342E-03 -.252E-03 -.239E+00   -.117E-02 0.731E-03 0.208E+00   0.000E+00 0.000E+00 0.247E-03   0.260E-07 0.131E-07 0.479E-03
   -.487E-03 0.354E-03 -.241E+00   0.772E-06 0.702E-04 0.210E+00   0.867E-18 0.000E+00 0.139E-02   -.259E-08 -.689E-07 0.757E-03
   -.849E+02 0.499E-03 -.511E+03   0.866E+02 -.949E-02 0.513E+03   -.170E+01 -.198E-03 -.242E+01   -.207E-03 0.679E-05 -.678E-03
   0.425E+02 -.736E+02 -.511E+03   -.433E+02 0.750E+02 0.513E+03   0.849E+00 -.147E+01 -.242E+01   0.978E-04 -.183E-03 -.678E-03
   0.425E+02 0.736E+02 -.511E+03   -.433E+02 -.750E+02 0.513E+03   0.849E+00 0.147E+01 -.242E+01   0.110E-03 0.176E-03 -.678E-03
   -.423E+02 -.733E+02 0.511E+03   0.432E+02 0.747E+02 -.513E+03   -.851E+00 -.147E+01 0.244E+01   -.121E-03 -.116E-03 0.101E-02
   0.847E+02 -.120E-01 0.511E+03   -.863E+02 0.358E-02 -.513E+03   0.170E+01 0.503E-04 0.244E+01   0.161E-03 -.473E-04 0.101E-02
   -.423E+02 0.733E+02 0.511E+03   0.431E+02 -.747E+02 -.513E+03   -.851E+00 0.147E+01 0.244E+01   -.394E-04 0.163E-03 0.101E-02
 -----------------------------------------------------------------------------------------------
   0.602E-01 -.346E-01 -.593E-01   -.711E-14 0.000E+00 0.000E+00   -.222E-15 -.222E-15 0.568E-01   0.332E-07 -.639E-07 0.222E-02
 
 
 POSITION                                       TOTAL-FORCE (eV/Angst)
 -----------------------------------------------------------------------------------
     -3.04124      5.26759      6.40848         0.000000      0.000000     -0.029593
      3.04124      1.75587      6.40844        -0.000000      0.000000     -0.029168
      3.92055      3.51176      7.78176         0.009693     -0.000159      0.025587
      1.08095      1.63941      7.78174        -0.004709      0.008474      0.025587
      4.12222      0.11644      7.78175        -0.004985     -0.008315      0.025587
      5.00177      1.63991      5.03087        -0.000302     -0.000580     -0.006000
      2.16139      3.51173      5.03089         0.000653      0.000029     -0.006000
      1.96054      0.11598      5.03085        -0.000352      0.000552     -0.006000
 -----------------------------------------------------------------------------------
    total drift:                                0.060182     -0.034588     -0.000302


--------------------------------------------------------------------------------------------------------



  FREE ENERGIE OF THE ION-ELECTRON SYSTEM (eV)
  ---------------------------------------------------
  free  energy   TOTEN  =       -31.04813758 eV

  energy  without entropy=      -31.04813758  energy(sigma->0) =      -31.04813758
 
 d Force = 0.8271358E-04[ 0.400E-04, 0.125E-03]  d Energy = 0.8132459E-04 0.139E-05
 d Force = 0.4575937E+01[ 0.458E+01, 0.458E+01]  d Ewald  = 0.1823867E+02-0.137E+02


--------------------------------------------------------------------------------------------------------


    POTLOK:  cpu time      0.0697: real time      0.0714


--------------------------------------------------------------------------------------------------------




--------------------------------------------------------------------------------------------------------


  
 reached required accuracy - stopping structural energy minimisation
     LOOP+:  cpu time    114.1276: real time    114.3329
    4ORBIT:  cpu time      0.0000: real time      0.0000

 total amount of memory used by VASP MPI-rank0  2720149. kBytes
=======================================================================

   base      :      30000. kBytes
   nonl-proj :     434607. kBytes
   fftplans  :      88392. kBytes
   grid      :     233496. kBytes
   one-center:        248. kBytes
   wavefun   :    1933406. kBytes
 
  
  
 General timing and accounting informations for this job:
 ========================================================
  
                  Total CPU time used (sec):      495.905
                            User time (sec):      492.606
                          System time (sec):        3.299
                         Elapsed time (sec):      497.000
  
                   Maximum memory used (kb):     4517300.
                   Average memory used (kb):          N/A
  
                          Minor page faults:       956192
                          Major page faults:            0
                 Voluntary context switches:        10805
