 vasp.6.4.3 19Mar24 (build Jul 08 2025 21:20:34) complex                        
  
 executed on             LinuxIFC date 2025.10.30  12:04:15
 running   32 mpi-ranks, on    1 nodes
 distrk:  each k-point on   32 cores,    1 groups
 distr:  one band on NCORE=   1 cores,   32 groups


--------------------------------------------------------------------------------------------------------


 INCAR:
   ISTART = 1            (Read existing wavefunction, if there)
   LREAL = .FALSE.       (Projection operators: automatic)
   ENCUT = 500        (Cut-off energy for plane wave basis set, in eV)
   PREC = Accurate   (Precision level: Normal or Accurate, set Accurate when perform structure lattice relaxation calculation)
   LWAVE = .FALSE.        (Write WAVECAR or not)
   LCHARG = .FALSE.        (Write CHGCAR or not)
   ADDGRID = .TRUE.        (Increase grid, helps GGA convergence)
   LASPH = .TRUE.        (Give more accurate total energies and band structure calculations)
   PREC = Accurate      (Accurate strictly avoids any aliasing or wrap around errors)
   ISMEAR = 0            (Gaussian smearing, metals:1)
   SIGMA = 0.05         (Smearing value in eV, metals:0.2)
   NELM = 90           (Max electronic SCF steps)
   NELMIN = 6            (Min electronic SCF steps)
   EDIFF = 1E-06        (SCF energy convergence, in eV)
   NSW = 0          (Max ionic steps)
   IBRION = 2            (Algorithm: 0-MD, 1-Quasi-New, 2-CG)
   EDIFFG = -2E-02        (Ionic convergence, eV/AA)
   ISPIN = 2
   MAGMOM = 5.0 5.0 0.0 0.0 0.0 0.0 0.0 0.0
   LDAU = .TRUE.
   LDAUTYPE = 2
   LDAUL = 2 -1
   LDAUU = 4.5 0.0
   LDAUJ = 0.9 0.0
   IVDW = 10

 POTCAR:    PAW_PBE Fe 06Sep2000                  
 POTCAR:    PAW_PBE Cl 06Sep2000                  
 -----------------------------------------------------------------------------
|                                                                             |
|           W    W    AA    RRRRR   N    N  II  N    N   GGGG   !!!           |
|           W    W   A  A   R    R  NN   N  II  NN   N  G    G  !!!           |
|           W    W  A    A  R    R  N N  N  II  N N  N  G       !!!           |
|           W WW W  AAAAAA  RRRRR   N  N N  II  N  N N  G  GGG   !            |
|           WW  WW  A    A  R   R   N   NN  II  N   NN  G    G                |
|           W    W  A    A  R    R  N    N  II  N    N   GGGG   !!!           |
|                                                                             |
|     For optimal performance we recommend to set                             |
|       NCORE = 2 up to number-of-cores-per-socket                            |
|     NCORE specifies how many cores store one orbital (NPAR=cpu/NCORE).      |
|     This setting can greatly improve the performance of VASP for DFT.       |
|     The default, NCORE=1 might be grossly inefficient on modern             |
|     multi-core architectures or massively parallel machines. Do your        |
|     own testing! More info at https://www.vasp.at/wiki/index.php/NCORE      |
|     Unfortunately you need to use the default for GW and RPA                |
|     calculations (for HF NCORE is supported but not extensively tested      |
|     yet).                                                                   |
|                                                                             |
 -----------------------------------------------------------------------------

 POTCAR:    PAW_PBE Fe 06Sep2000                  
   SHA256 =  cd5a22d9368cc8b5cc476bea79732366149640da08ac9009b0e1b7fc627eea28 Fe/POTCAR             
   COPYR  = (c) Copyright 06Sep2000 Georg Kresse                                                    
   COPYR  = This file is part of the software VASP. Any use, copying, and all other rights are regul
   COPYR  = If you do not have a valid VASP license, you may not use, copy or distribute this file. 
   VRHFIN =Fe:  d7 s1                                                                               
   LEXCH  = PE                                                                                      
   EATOM  =   594.3153 eV,   43.6809 Ry                                                             
                                                                                                    
   TITEL  = PAW_PBE Fe 06Sep2000                                                                    
   LULTRA =        F    use ultrasoft PP ?                                                          
   IUNSCR =        1    unscreen: 0-lin 1-nonlin 2-no                                               
   RPACOR =    2.000    partial core radius                                                         
   POMASS =   55.847; ZVAL   =    8.000    mass and valenz                                          
   RCORE  =    2.300    outmost cutoff radius                                                       
   RWIGS  =    2.460; RWIGS  =    1.302    wigner-seitz radius (au A)                               
   ENMAX  =  267.882; ENMIN  =  200.911 eV                                                          
   RCLOC  =    1.701    cutoff for local pot                                                        
   LCOR   =        T    correct aug charges                                                         
   LPAW   =        T    paw PP                                                                      
   EAUG   =  511.368                                                                                
   DEXC   =    0.000                                                                                
   RMAX   =    2.356    core radius for proj-oper                                                   
   RAUG   =    1.300    factor for augmentation sphere                                              
   RDEP   =    2.442    radius for radial grids                                                     
   RDEPT  =    1.890    core radius for aug-charge                                                  
                                                                                                    
   Atomic configuration                                                                             
    9 entries                                                                                       
     n  l   j            E        occ.                                                              
     1  0  0.50     -6993.8440   2.0000                                                             
     2  0  0.50      -814.6047   2.0000                                                             
     2  1  1.50      -693.3689   6.0000                                                             
     3  0  0.50       -89.4732   2.0000                                                             
     3  1  1.50       -55.6373   6.0000                                                             
     3  2  2.50        -3.8151   7.0000                                                             
     4  0  0.50        -4.2551   1.0000                                                             
     4  1  1.50        -3.4015   0.0000                                                             
     4  3  2.50        -1.3606   0.0000                                                             
   Description                                                                                      
     l       E           TYP  RCUT    TYP  RCUT                                                     
     2     -3.8151135     23  2.300                                                                 
     2     -5.1756961     23  2.300                                                                 
     0     -4.2550963     23  2.300                                                                 
     0      7.2035603     23  2.300                                                                 
     1     -2.7211652     23  2.300                                                                 
     1     18.4316424     23  2.300                                                                 
  local pseudopotential read in
  partial core-charges read in
  partial kinetic energy density read in
  atomic valenz-charges read in
  non local Contribution for L=           2  read in
    real space projection operators read in
  non local Contribution for L=           2  read in
    real space projection operators read in
  non local Contribution for L=           0  read in
    real space projection operators read in
  non local Contribution for L=           0  read in
    real space projection operators read in
  non local Contribution for L=           1  read in
    real space projection operators read in
  non local Contribution for L=           1  read in
    real space projection operators read in
    PAW grid and wavefunctions read in
 
   number of l-projection  operators is LMAX  =           6
   number of lm-projection operators is LMMAX =          18
 
 POTCAR:    PAW_PBE Cl 06Sep2000                  
   SHA256 =  9f1b6e6ed4247ac726a768b330d26d7667cc3c95a39ff49c1d064c2d9dcce931 Cl/POTCAR             
   COPYR  = (c) Copyright 06Sep2000 Georg Kresse                                                    
   COPYR  = This file is part of the software VASP. Any use, copying, and all other rights are regul
   COPYR  = If you do not have a valid VASP license, you may not use, copy or distribute this file. 
   VRHFIN =Cl: s2p5                                                                                 
   LEXCH  = PE                                                                                      
   EATOM  =   409.7259 eV,   30.1140 Ry                                                             
                                                                                                    
   TITEL  = PAW_PBE Cl 06Sep2000                                                                    
   LULTRA =        F    use ultrasoft PP ?                                                          
   IUNSCR =        1    unscreen: 0-lin 1-nonlin 2-no                                               
   RPACOR =    1.500    partial core radius                                                         
   POMASS =   35.453; ZVAL   =    7.000    mass and valenz                                          
   RCORE  =    1.900    outmost cutoff radius                                                       
   RWIGS  =    2.100; RWIGS  =    1.111    wigner-seitz radius (au A)                               
   ENMAX  =  262.472; ENMIN  =  196.854 eV                                                          
   ICORE  =        2    local potential                                                             
   LCOR   =        T    correct aug charges                                                         
   LPAW   =        T    paw PP                                                                      
   EAUG   =  356.192                                                                                
   DEXC   =    0.000                                                                                
   RMAX   =    1.945    core radius for proj-oper                                                   
   RAUG   =    1.300    factor for augmentation sphere                                              
   RDEP   =    2.020    radius for radial grids                                                     
   RDEPT  =    1.678    core radius for aug-charge                                                  
                                                                                                    
   Atomic configuration                                                                             
    6 entries                                                                                       
     n  l   j            E        occ.                                                              
     1  0  0.50     -2751.1850   2.0000                                                             
     2  0  0.50      -252.6861   2.0000                                                             
     2  1  1.50      -191.6157   6.0000                                                             
     3  0  0.50       -20.6916   2.0000                                                             
     3  1  0.50        -8.5949   5.0000                                                             
     3  2  1.50        -8.1635   0.0000                                                             
   Description                                                                                      
     l       E           TYP  RCUT    TYP  RCUT                                                     
     0    -20.6915656     23  1.900                                                                 
     0    -22.0521482     23  1.900                                                                 
     1     -8.5948577     23  1.900                                                                 
     1     -5.3847331     23  1.900                                                                 
     2     -8.1634956     23  1.900                                                                 
  local pseudopotential read in
  partial core-charges read in
  partial kinetic energy density read in
  atomic valenz-charges read in
  non local Contribution for L=           0  read in
    real space projection operators read in
  non local Contribution for L=           0  read in
    real space projection operators read in
  non local Contribution for L=           1  read in
    real space projection operators read in
  non local Contribution for L=           1  read in
    real space projection operators read in
    PAW grid and wavefunctions read in
 
   number of l-projection  operators is LMAX  =           4
   number of lm-projection operators is LMMAX =           8
 
  PAW_PBE Fe 06Sep2000                  :
 energy of atom  1       EATOM= -594.3153
 kinetic energy error for atom=    0.0026 (will be added to EATOM!!)
  PAW_PBE Cl 06Sep2000                  :
 energy of atom  2       EATOM= -409.7259
 kinetic energy error for atom=    0.0030 (will be added to EATOM!!)
 
 
 POSCAR: Fe Cl
  positions in direct lattice
  velocities in cartesian coordinates



  D2 vdW correction parametrized for the method pbe       
  IVDW =  10
  VDW_C6 =   10.800   5.070 Jnm^6/mol
  VDW_R0 =    1.562   1.639 A
  VDW_RADIUS =    50.000 A
  VDW_S6 =     0.750
  VDW_SR =     1.000
  VDW_D =    20.000
  LVDW_EWALD = F


 exchange-correlation table for PE
   RHO(1)=    0.500       N(1)  =     2000
   RHO(2)=  100.500       N(2)  =     4000
 


--------------------------------------------------------------------------------------------------------


 ion  position               nearest neighbor table
   1  1.000  0.000  0.226-   5 2.41   4 2.41   3 2.41   6 2.41   7 2.41   8 2.41
   2  0.667  0.333  0.226-   5 2.41   4 2.41   3 2.41   8 2.41   7 2.41   6 2.41
   3  0.973  0.667  0.274-   2 2.41   1 2.41
   4  0.333  0.306  0.274-   2 2.41   1 2.41
   5  0.694  0.027  0.274-   2 2.41   1 2.41
   6  0.972  0.306  0.179-   1 2.41   2 2.41
   7  0.694  0.667  0.179-   1 2.41   2 2.41
   8  0.333  0.028  0.179-   1 2.41   2 2.41
 
  LATTYP: Found a hexagonal cell.
 ALAT       =     6.1818200000
 C/A-ratio  =     4.6673795096
  
  Lattice vectors:
  
 A1 = (   6.1818200000,   0.0000000000,   0.0000000000)
 A2 = (  -3.0909100000,   5.3536100000,   0.0000000000)
 A3 = (   0.0000000000,   0.0000000000,  28.8529000000)


Analysis of symmetry for initial positions (statically):
=====================================================================
 Subroutine PRICEL returns:
 Original cell was already a primitive cell.
 

 Routine SETGRP: Setting up the symmetry group for a 
 hexagonal supercell.


 Subroutine GETGRP returns: Found  3 space group operations
 (whereof  3 operations were pure point group operations)
 out of a pool of 24 trial point group operations.


The static configuration has the point symmetry C_3 .


Analysis of symmetry for dynamics (positions and initial velocities):
=====================================================================
 Subroutine PRICEL returns:
 Original cell was already a primitive cell.
 

 Routine SETGRP: Setting up the symmetry group for a 
 hexagonal supercell.


 Subroutine GETGRP returns: Found  3 space group operations
 (whereof  3 operations were pure point group operations)
 out of a pool of 24 trial point group operations.


The dynamic configuration has the point symmetry C_3 .


Analysis of structural, dynamic, and magnetic symmetry:
=====================================================================
 Subroutine PRICEL returns:
 Original cell was already a primitive cell.
 

 Routine SETGRP: Setting up the symmetry group for a 
 hexagonal supercell.


 Subroutine GETGRP returns: Found  3 space group operations
 (whereof  3 operations were pure point group operations)
 out of a pool of 24 trial point group operations.


The overall configuration has the point symmetry C_3 .


 Subroutine INISYM returns: Found  3 space group operations
 (whereof  3 operations are pure point group operations),
 and found     1 'primitive' translations


----------------------------------------------------------------------------------------

                                     Primitive cell                                     

  volume of cell :     954.8883

  direct lattice vectors                    reciprocal lattice vectors
     6.181820000  0.000000000  0.000000000     0.161764658  0.093394924  0.000000000
    -3.090910000  5.353610000  0.000000000     0.000000000  0.186789848  0.000000000
     0.000000000  0.000000000 28.852900000     0.000000000  0.000000000  0.034658561

  length of vectors
     6.181820000  6.181817262 28.852900000     0.186789766  0.186789848  0.034658561

  position of ions in fractional coordinates (direct lattice)
     0.999999079  0.000002359  0.226266307
     0.666664863  0.333333716  0.226301739
     0.972596849  0.666634144  0.273657952
     0.333365439  0.305963100  0.273658212
     0.694036841  0.027405215  0.273657803
     0.972245689  0.305582733  0.178809514
     0.694414576  0.666663734  0.178809468
     0.333336663  0.027754999  0.178809005

  ion indices of the primitive-cell ions
   primitive index   ion index
                 1           1
                 2           2
                 3           3
                 4           4
                 5           5
                 6           6
                 7           7
                 8           8

----------------------------------------------------------------------------------------

 
 
 KPOINTS: K-Spacing Value to Generate K-Mesh: 0.04

Automatic generation of k-mesh.
 Grid dimensions read from file:
 generate k-points for:   14   14    1

 Generating k-lattice:

  Cartesian coordinates                     Fractional coordinates (reciprocal lattice)
     0.011554618  0.006671066  0.000000000     0.071428571 -0.000000000  0.000000000
     0.000000000  0.013342132  0.000000000     0.000000000  0.071428571  0.000000000
     0.000000000  0.000000000  0.034658561     0.000000000  0.000000000  1.000000000

  Length of vectors
     0.013342126  0.013342132  0.034658561

  Shift w.r.t. Gamma in fractional coordinates (k-lattice)
     0.000000000  0.000000000  0.000000000

 
 Subroutine IBZKPT returns following result:
 ===========================================
 
 Found     34 irreducible k-points:
 
 Following reciprocal coordinates:
            Coordinates               Weight
  0.000000  0.000000  0.000000      1.000000
  0.071429  0.000000  0.000000      6.000000
  0.142857  0.000000  0.000000      6.000000
  0.214286  0.000000  0.000000      6.000000
  0.285714  0.000000  0.000000      6.000000
  0.357143  0.000000  0.000000      6.000000
  0.428571  0.000000  0.000000      6.000000
  0.500000  0.000000  0.000000      3.000000
  0.071429  0.071429  0.000000      6.000000
  0.142857  0.071429  0.000000      6.000000
 -0.142857  0.214286  0.000000      6.000000
  0.214286  0.071429  0.000000      6.000000
 -0.214286  0.285714  0.000000      6.000000
  0.285714  0.071429  0.000000      6.000000
 -0.285714  0.357143  0.000000      6.000000
  0.357143  0.071429  0.000000      6.000000
 -0.357143  0.428571  0.000000      6.000000
  0.428571  0.071429  0.000000      6.000000
 -0.428571  0.500000  0.000000      6.000000
  0.142857  0.142857  0.000000      6.000000
  0.214286  0.142857  0.000000      6.000000
 -0.214286  0.357143  0.000000      6.000000
  0.285714  0.142857  0.000000      6.000000
 -0.285714  0.428571  0.000000      6.000000
  0.357143  0.142857  0.000000      6.000000
 -0.357143  0.500000  0.000000      6.000000
  0.428571  0.142857  0.000000      6.000000
  0.214286  0.214286  0.000000      6.000000
  0.285714  0.214286  0.000000      6.000000
 -0.285714  0.500000  0.000000      6.000000
  0.357143  0.214286  0.000000      6.000000
 -0.357143 -0.428571  0.000000      6.000000
  0.285714  0.285714  0.000000      6.000000
  0.357143  0.285714  0.000000      6.000000
 
 Following cartesian coordinates:
            Coordinates               Weight
  0.000000  0.000000  0.000000      1.000000
  0.011555  0.006671  0.000000      6.000000
  0.023109  0.013342  0.000000      6.000000
  0.034664  0.020013  0.000000      6.000000
  0.046218  0.026684  0.000000      6.000000
  0.057773  0.033355  0.000000      6.000000
  0.069328  0.040026  0.000000      6.000000
  0.080882  0.046697  0.000000      3.000000
  0.011555  0.020013  0.000000      6.000000
  0.023109  0.026684  0.000000      6.000000
 -0.023109  0.026684  0.000000      6.000000
  0.034664  0.033355  0.000000      6.000000
 -0.034664  0.033355  0.000000      6.000000
  0.046218  0.040026  0.000000      6.000000
 -0.046218  0.040026  0.000000      6.000000
  0.057773  0.046697  0.000000      6.000000
 -0.057773  0.046697  0.000000      6.000000
  0.069328  0.053369  0.000000      6.000000
 -0.069328  0.053369  0.000000      6.000000
  0.023109  0.040026  0.000000      6.000000
  0.034664  0.046697  0.000000      6.000000
 -0.034664  0.046697  0.000000      6.000000
  0.046218  0.053369  0.000000      6.000000
 -0.046218  0.053369  0.000000      6.000000
  0.057773  0.060040  0.000000      6.000000
 -0.057773  0.060040  0.000000      6.000000
  0.069328  0.066711  0.000000      6.000000
  0.034664  0.060040  0.000000      6.000000
  0.046218  0.066711  0.000000      6.000000
 -0.046218  0.066711  0.000000      6.000000
  0.057773  0.073382  0.000000      6.000000
 -0.057773 -0.113408  0.000000      6.000000
  0.046218  0.080053  0.000000      6.000000
  0.057773  0.086724  0.000000      6.000000
 


--------------------------------------------------------------------------------------------------------




 Dimension of arrays:
   k-points           NKPTS =     34   k-points in BZ     NKDIM =     34   number of bands    NBANDS=     64
   number of dos      NEDOS =    301   number of ions     NIONS =      8
   non local maximal  LDIM  =      6   non local SUM 2l+1 LMDIM =     18
   total plane-waves  NPLWV = 483840
   max r-space proj   IRMAX =      1   max aug-charges    IRDMAX= 144579
   dimension x,y,z NGX =    48 NGY =   48 NGZ =  210
   dimension x,y,z NGXF=    96 NGYF=   96 NGZF=  420
   support grid    NGXF=   192 NGYF=  192 NGZF=  840
   ions per type =               2   6
   NGX,Y,Z   is equivalent  to a cutoff of  12.91, 12.91, 12.10 a.u.
   NGXF,Y,Z  is equivalent  to a cutoff of  25.82, 25.82, 24.20 a.u.

 SYSTEM =  unknown system                          
 POSCAR =  Fe Cl                                   

 Startparameter for this run:
   NWRITE =      2    write-flag & timer
   PREC   = accura    normal or accurate (medium, high low for compatibility)
   ISTART =      0    job   : 0-new  1-cont  2-samecut
   ICHARG =      2    charge: 1-file 2-atom 10-const
   ISPIN  =      2    spin polarized calculation?
   LNONCOLLINEAR =      F non collinear calculations
   LSORBIT =      F    spin-orbit coupling
   INIWAV =      1    electr: 0-lowe 1-rand  2-diag
   LASPH  =      T    aspherical Exc in radial PAW
 Electronic Relaxation 1
   ENCUT  =  500.0 eV  36.75 Ry    6.06 a.u.  11.27 11.27 52.61*2*pi/ulx,y,z
   ENINI  =  500.0     initial cutoff
   ENAUG  =  511.4 eV  augmentation charge cutoff
   NELM   =     90;   NELMIN=  6; NELMDL=  0     # of ELM steps 
   EDIFF  = 0.1E-05   stopping-criterion for ELM
   LREAL  =      F    real-space projection
   NLSPLINE    = F    spline interpolate recip. space projectors
   LCOMPAT=      F    compatible to vasp.4.4
   GGA_COMPAT  = T    GGA compatible to vasp.4.4-vasp.4.6
   LMAXPAW     = -100 max onsite density
   LMAXMIX     =    2 max onsite mixed and CHGCAR
   VOSKOWN=      0    Vosko Wilk Nusair interpolation
   ROPT   =    0.00000   0.00000
 Ionic relaxation
   EDIFFG = -.2E-01   stopping-criterion for IOM
   NSW    =      0    number of steps for IOM
   NBLOCK =      1;   KBLOCK =      1    inner block; outer block 
   IBRION =     -1    ionic relax: 0-MD 1-quasi-New 2-CG
   NFREE  =      1    steps in history (QN), initial steepest desc. (CG)
   ISIF   =      2    stress and relaxation
   IWAVPR =     10    prediction:  0-non 1-charg 2-wave 3-comb
   ISYM   =      2    0-nonsym 1-usesym 2-fastsym
   LCORR  =      T    Harris-Foulkes like correction to forces

   POTIM  = 0.5000    time-step for ionic-motion
   TEIN   =    0.0    initial temperature
   TEBEG  =    0.0;   TEEND  =   0.0 temperature during run
   SMASS  =  -3.00    Nose mass-parameter (am)
   estimated Nose-frequenzy (Omega)   =  0.10E-29 period in steps = 0.13E+47 mass=  -0.873E-27a.u.
   SCALEE = 1.0000    scale energy and forces
   NPACO  =    256;   APACO  = 10.0  distance and # of slots for P.C.
   PSTRESS=    0.0 pullay stress

  Mass of Ions in am
   POMASS =  55.85 35.45
  Ionic Valenz
   ZVAL   =   8.00  7.00
  Atomic Wigner-Seitz radii
   RWIGS  =  -1.00 -1.00
  virtual crystal weights 
   VCA    =   1.00  1.00
   NELECT =      58.0000    total number of electrons
   NUPDOWN=      -1.0000    fix difference up-down

 DOS related values:
   EMIN   =  10.00;   EMAX   =-10.00  energy-range for DOS
   EFERMI =   0.00;   METHOD = LEGACY      
   ISMEAR =     0;   SIGMA  =   0.05  broadening in eV -4-tet -1-fermi 0-gaus

 Electronic relaxation 2 (details)
   IALGO  =     38    algorithm
   LDIAG  =      T    sub-space diagonalisation (order eigenvalues)
   LSUBROT=      F    optimize rotation matrix (better conditioning)
   TURBO    =      0    0=normal 1=particle mesh
   IRESTART =      0    0=no restart 2=restart with 2 vectors
   NREBOOT  =      0    no. of reboots
   NMIN     =      0    reboot dimension
   EREF     =   0.00    reference energy to select bands
   IMIX   =      4    mixing-type and parameters
     AMIX     =   0.40;   BMIX     =  1.00
     AMIX_MAG =   1.60;   BMIX_MAG =  1.00
     AMIN     =   0.10
     WC   =   100.;   INIMIX=   1;  MIXPRE=   1;  MAXMIX= -45

 Intra band minimization:
   WEIMIN = 0.0000     energy-eigenvalue tresh-hold
   EBREAK =  0.39E-08  absolut break condition
   DEPER  =   0.30     relativ break condition  

   TIME   =   0.40     timestep for ELM

  volume/ion in A,a.u.               =     119.36       805.49
  Fermi-wavevector in a.u.,A,eV,Ry     =   0.643527  1.216089  5.634537  0.414127
  Thomas-Fermi vector in A             =   1.710556
 
 Write flags
   LWAVE        =      F    write WAVECAR
   LDOWNSAMPLE  =      F    k-point downsampling of WAVECAR
   LCHARG       =      F    write CHGCAR
   LVTOT        =      F    write LOCPOT, total local potential
   LVHAR        =      F    write LOCPOT, Hartree potential only
   WRT_POTENTIAL= false  ! write potential to hdf5 file
   LELF         =      F    write electronic localiz. function (ELF)
   LORBIT       =      0    0 simple, 1 ext, 2 COOP (PROOUT), +10 PAW based schemes


 Dipole corrections
   LMONO      =      F    monopole corrections only (constant potential shift)
   LDIPOL     =      F    correct potential (dipole corrections)
   IDIPOL     =      0    1-x, 2-y, 3-z, 4-all directions 
   EPSILON    =  1.0000000 bulk dielectric constant
   LVACPOTAV  =      F  vacuum potentials using an averaging scheme for the charge density
   VACPOTFLAT =  0.1000000 required flatness to determine vacuum potential
 LDA+U is selected, type is set to LDAUTYPE =  2
   angular momentum for each species LDAUL =     2   -1
   U (eV)           for each species LDAUU =   4.5  0.0
   J (eV)           for each species LDAUJ =   0.9  0.0
 Exchange correlation treatment:
   GGA     = PE    functional components
   XC_C    = 1    coefficients multiplying the functional components
   LIBXC   =     F    Libxc                    
   VOSKOWN =     0    Vosko Wilk Nusair interpolation
   LHFCALC =     F    Hartree Fock is set to
   LHFONE  =     F    Hartree Fock one center treatment
   AEXX    =    0.0000 exact exchange contribution

 Parameters of functionals:
   PE:
     No parameter
 
 Van der Waals corrections
   IVDW    =    10    specifies the selected vdW correction

 Linear response parameters
   LEPSILON=     F    determine dielectric tensor
   LRPA    =     F    only Hartree local field effects (RPA)
   LNABLA  =     F    use nabla operator in PAW spheres
   LVEL    =     F    velocity operator in full k-point grid
   CSHIFT  =0.1000    complex shift for real part using Kramers Kronig
   OMEGAMAX=  -1.0    maximum frequency
   DEG_THRESHOLD= 0.2000000E-02 threshold for treating states as degnerate
   RTIME   =   -0.100 relaxation time in fs
  (WPLASMAI=    0.000 imaginary part of plasma frequency in eV, 0.658/RTIME)
   DFIELD  = 0.0000000 0.0000000 0.0000000 field for delta impulse in time
 
  Optional k-point grid parameters
   LKPOINTS_OPT  =     F    use optional k-point grid
   KPOINTS_OPT_MODE=     1    mode for optional k-point grid
 
 Orbital magnetization related:
   ORBITALMAG=     F  switch on orbital magnetization
   LCHIMAG   =     F  perturbation theory with respect to B field
   DQ        =  0.001000  dq finite difference perturbation B field
   LLRAUG    =     F  two centre corrections for induced B field
   LBONE     =     F  B-component reconstruction in AE one-centre
   LVGVCALC  =     T  calculate vGv susceptibility
   LVGVAPPL  =     F  apply vGv susceptibility instead of pGv for G=0

 Random number generation:
   RANDOM_GENERATOR = DEFAULT
   PCG_SEED         = not used


--------------------------------------------------------------------------------------------------------


 Static calculation
 charge density and potential will be updated during run
 spin polarized calculation
 Variant of blocked Davidson
 Davidson routine will perform the subspace rotation
 perform sub-space diagonalisation
    after iterative eigenvector-optimisation
 modified Broyden-mixing scheme, WC =      100.0
 initial mixing is a Kerker type mixing with AMIX =  0.4000 and BMIX =      1.0000
 Hartree-type preconditioning will be used
 using additional bands           35
 reciprocal scheme for non local part
 use partial core corrections
 calculate Harris-corrections to forces 
   (improved forces if not selfconsistent)
 use gradient corrections 
 use of overlap-Matrix (Vanderbilt PP)
 Gauss-broadening in eV      SIGMA  =   0.05


--------------------------------------------------------------------------------------------------------


  energy-cutoff  :      500.00
  volume of cell :      954.89
      direct lattice vectors                 reciprocal lattice vectors
     6.181820000  0.000000000  0.000000000     0.161764658  0.093394924  0.000000000
    -3.090910000  5.353610000  0.000000000     0.000000000  0.186789848  0.000000000
     0.000000000  0.000000000 28.852900000     0.000000000  0.000000000  0.034658561

  length of vectors
     6.181820000  6.181817262 28.852900000     0.186789766  0.186789848  0.034658561


 
 k-points in units of 2pi/SCALE and weight: K-Spacing Value to Generate K-Mesh: 0.04
   0.00000000  0.00000000  0.00000000       0.005
   0.01155462  0.00667107  0.00000000       0.031
   0.02310924  0.01334213  0.00000000       0.031
   0.03466386  0.02001320  0.00000000       0.031
   0.04621847  0.02668426  0.00000000       0.031
   0.05777309  0.03335533  0.00000000       0.031
   0.06932771  0.04002640  0.00000000       0.031
   0.08088233  0.04669746  0.00000000       0.015
   0.01155462  0.02001320  0.00000000       0.031
   0.02310924  0.02668426  0.00000000       0.031
  -0.02310924  0.02668426  0.00000000       0.031
   0.03466386  0.03335533  0.00000000       0.031
  -0.03466386  0.03335533  0.00000000       0.031
   0.04621847  0.04002640  0.00000000       0.031
  -0.04621847  0.04002640  0.00000000       0.031
   0.05777309  0.04669746  0.00000000       0.031
  -0.05777309  0.04669746  0.00000000       0.031
   0.06932771  0.05336853  0.00000000       0.031
  -0.06932771  0.05336853  0.00000000       0.031
   0.02310924  0.04002640  0.00000000       0.031
   0.03466386  0.04669746  0.00000000       0.031
  -0.03466386  0.04669746  0.00000000       0.031
   0.04621847  0.05336853  0.00000000       0.031
  -0.04621847  0.05336853  0.00000000       0.031
   0.05777309  0.06003959  0.00000000       0.031
  -0.05777309  0.06003959  0.00000000       0.031
   0.06932771  0.06671066  0.00000000       0.031
   0.03466386  0.06003959  0.00000000       0.031
   0.04621847  0.06671066  0.00000000       0.031
  -0.04621847  0.06671066  0.00000000       0.031
   0.05777309  0.07338173  0.00000000       0.031
  -0.05777309 -0.11340812  0.00000000       0.031
   0.04621847  0.08005279  0.00000000       0.031
   0.05777309  0.08672386  0.00000000       0.031
 
 k-points in reciprocal lattice and weights: K-Spacing Value to Generate K-Mesh: 0.04
   0.00000000  0.00000000  0.00000000       0.005
   0.07142857  0.00000000  0.00000000       0.031
   0.14285714  0.00000000  0.00000000       0.031
   0.21428571  0.00000000  0.00000000       0.031
   0.28571429  0.00000000  0.00000000       0.031
   0.35714286  0.00000000  0.00000000       0.031
   0.42857143  0.00000000  0.00000000       0.031
   0.50000000  0.00000000  0.00000000       0.015
   0.07142857  0.07142857  0.00000000       0.031
   0.14285714  0.07142857  0.00000000       0.031
  -0.14285714  0.21428571  0.00000000       0.031
   0.21428571  0.07142857  0.00000000       0.031
  -0.21428571  0.28571429  0.00000000       0.031
   0.28571429  0.07142857  0.00000000       0.031
  -0.28571429  0.35714286  0.00000000       0.031
   0.35714286  0.07142857  0.00000000       0.031
  -0.35714286  0.42857143  0.00000000       0.031
   0.42857143  0.07142857  0.00000000       0.031
  -0.42857143  0.50000000  0.00000000       0.031
   0.14285714  0.14285714  0.00000000       0.031
   0.21428571  0.14285714  0.00000000       0.031
  -0.21428571  0.35714286  0.00000000       0.031
   0.28571429  0.14285714  0.00000000       0.031
  -0.28571429  0.42857143  0.00000000       0.031
   0.35714286  0.14285714  0.00000000       0.031
  -0.35714286  0.50000000  0.00000000       0.031
   0.42857143  0.14285714  0.00000000       0.031
   0.21428571  0.21428571  0.00000000       0.031
   0.28571429  0.21428571  0.00000000       0.031
  -0.28571429  0.50000000  0.00000000       0.031
   0.35714286  0.21428571  0.00000000       0.031
  -0.35714286 -0.42857143  0.00000000       0.031
   0.28571429  0.28571429  0.00000000       0.031
   0.35714286  0.28571429  0.00000000       0.031
 
 position of ions in fractional coordinates (direct lattice) 
   0.99999908  0.00000236  0.22626631
   0.66666486  0.33333372  0.22630174
   0.97259685  0.66663414  0.27365795
   0.33336544  0.30596310  0.27365821
   0.69403684  0.02740521  0.27365780
   0.97224569  0.30558273  0.17880951
   0.69441458  0.66666373  0.17880947
   0.33333666  0.02775500  0.17880901
 
 position of ions in cartesian coordinates  (Angst):
   6.18180701  0.00001263  6.52843913
   3.09089767  1.78453872  6.52946144
   3.95191251  3.56889922  7.89582552
   1.11510073  1.63800711  7.89583303
   4.20570377  0.14671683  7.89582122
   5.06571912  1.63597078  5.15917302
   2.23214831  3.56905763  5.15917170
   1.97483905  0.14858944  5.15915835
 


--------------------------------------------------------------------------------------------------------


 k-point     1 :   0.0000 0.0000 0.0000  plane waves:   24345
 k-point     2 :   0.0714 0.0000 0.0000  plane waves:   24307
 k-point     3 :   0.1429 0.0000 0.0000  plane waves:   24257
 k-point     4 :   0.2143 0.0000 0.0000  plane waves:   24251
 k-point     5 :   0.2857 0.0000 0.0000  plane waves:   24248
 k-point     6 :   0.3571 0.0000 0.0000  plane waves:   24230
 k-point     7 :   0.4286 0.0000 0.0000  plane waves:   24210
 k-point     8 :   0.5000 0.0000 0.0000  plane waves:   24244
 k-point     9 :   0.0714 0.0714 0.0000  plane waves:   24251
 k-point    10 :   0.1429 0.0714 0.0000  plane waves:   24246
 k-point    11 :  -0.1429 0.2143 0.0000  plane waves:   24246
 k-point    12 :   0.2143 0.0714 0.0000  plane waves:   24223
 k-point    13 :  -0.2143 0.2857 0.0000  plane waves:   24223
 k-point    14 :   0.2857 0.0714 0.0000  plane waves:   24238
 k-point    15 :  -0.2857 0.3571 0.0000  plane waves:   24238
 k-point    16 :   0.3571 0.0714 0.0000  plane waves:   24216
 k-point    17 :  -0.3571 0.4286 0.0000  plane waves:   24216
 k-point    18 :   0.4286 0.0714 0.0000  plane waves:   24258
 k-point    19 :  -0.4286 0.5000 0.0000  plane waves:   24258
 k-point    20 :   0.1429 0.1429 0.0000  plane waves:   24215
 k-point    21 :   0.2143 0.1429 0.0000  plane waves:   24239
 k-point    22 :  -0.2143 0.3571 0.0000  plane waves:   24239
 k-point    23 :   0.2857 0.1429 0.0000  plane waves:   24241
 k-point    24 :  -0.2857 0.4286 0.0000  plane waves:   24241
 k-point    25 :   0.3571 0.1429 0.0000  plane waves:   24261
 k-point    26 :  -0.3571 0.5000 0.0000  plane waves:   24261
 k-point    27 :   0.4286 0.1429 0.0000  plane waves:   24264
 k-point    28 :   0.2143 0.2143 0.0000  plane waves:   24221
 k-point    29 :   0.2857 0.2143 0.0000  plane waves:   24224
 k-point    30 :  -0.2857 0.5000 0.0000  plane waves:   24224
 k-point    31 :   0.3571 0.2143 0.0000  plane waves:   24263
 k-point    32 :  -0.3571-0.4286 0.0000  plane waves:   24263
 k-point    33 :   0.2857 0.2857 0.0000  plane waves:   24239
 k-point    34 :   0.3571 0.2857 0.0000  plane waves:   24253

 maximum and minimum number of plane-waves per node :     24345    24210

 maximum number of plane-waves:     24345
 maximum index in each direction: 
   IXMAX=   11   IYMAX=   11   IZMAX=   52
   IXMIN=  -11   IYMIN=  -11   IZMIN=  -52


 serial   3D FFT for wavefunctions
 parallel 3D FFT for charge:
    minimum data exchange during FFTs selected (reduces bandwidth)


 total amount of memory used by VASP MPI-rank0   393134. kBytes
=======================================================================

   base      :      30000. kBytes
   nonl-proj :     241571. kBytes
   fftplans  :      19623. kBytes
   grid      :      48494. kBytes
   one-center:        248. kBytes
   wavefun   :      53198. kBytes
 
     INWAV:  cpu time      0.0000: real time      0.0000
 Broyden mixing: mesh for mixing (old mesh)
   NGX = 23   NGY = 23   NGZ =105
  (NGX  = 96   NGY  = 96   NGZ  =420)
  gives a total of  55545 points

 initial charge density was supplied:
 charge density of overlapping atoms calculated
 number of electron      58.0000000 magnetization      10.0000000
 keeping initial charge density in first step


--------------------------------------------------------------------------------------------------------


 Maximum index for augmentation-charges         4185 (set IRDMAX)


--------------------------------------------------------------------------------------------------------


 First call to EWALD:  gamma=   0.180
 Maximum number of real-space cells 5x 5x 1
 Maximum number of reciprocal cells 2x 2x 7

    FEWALD:  cpu time      0.0034: real time      0.0073


--------------------------------------- Ionic step        1  -------------------------------------------




--------------------------------------- Iteration      1(   1)  ---------------------------------------


    POTLOK:  cpu time      0.3274: real time      0.4201
    SETDIJ:  cpu time      0.8052: real time      0.8140
     EDDAV:  cpu time     21.6538: real time     23.4288
       DOS:  cpu time      0.0049: real time      0.0199
    --------------------------------------------
      LOOP:  cpu time     22.7914: real time     24.6831

 eigenvalue-minimisations  :  8704
 total energy-change (2. order) : 0.4614288E+03  (-0.1770859E+04)
 number of electron      58.0000000 magnetization      10.0000000
 augmentation part       58.0000000 magnetization      10.0000000

 Free energy of the ion-electron system (eV)
  ---------------------------------------------------
  alpha Z        PSCENC =        21.49062660
  Ewald energy   TEWEN  =     13302.37172639
  -Hartree energ DENC   =    -16550.99961431
  -exchange      EXHF   =         0.00000000
  -V(xc)+E(xc)   XCENC  =       131.78022992
  PAW double counting   =      3055.14876058    -3050.95216630
  entropy T*S    EENTRO =        -0.01122637
  eigenvalues    EBANDS =       -94.36214279
  atomic energy  EATOM  =      3646.96265231
  Solvation  Ediel_sol  =         0.00000000
  ---------------------------------------------------
  free energy    TOTEN  =       461.42884603 eV

  energy without entropy =      461.44007240  energy(sigma->0) =      461.43445921


--------------------------------------------------------------------------------------------------------




--------------------------------------- Iteration      1(   2)  ---------------------------------------


     EDDAV:  cpu time     30.0182: real time     31.5331
       DOS:  cpu time      0.0112: real time      0.0345
    --------------------------------------------
      LOOP:  cpu time     30.0294: real time     31.5678

 eigenvalue-minimisations  : 13408
 total energy-change (2. order) :-0.4378457E+03  (-0.4020055E+03)
 number of electron      58.0000000 magnetization      10.0000000
 augmentation part       58.0000000 magnetization      10.0000000

 Free energy of the ion-electron system (eV)
  ---------------------------------------------------
  alpha Z        PSCENC =        21.49062660
  Ewald energy   TEWEN  =     13302.37172639
  -Hartree energ DENC   =    -16550.99961431
  -exchange      EXHF   =         0.00000000
  -V(xc)+E(xc)   XCENC  =       131.78022992
  PAW double counting   =      3055.14876058    -3050.95216630
  entropy T*S    EENTRO =        -0.00000000
  eigenvalues    EBANDS =      -532.21907620
  atomic energy  EATOM  =      3646.96265231
  Solvation  Ediel_sol  =         0.00000000
  ---------------------------------------------------
  free energy    TOTEN  =        23.58313899 eV

  energy without entropy =       23.58313899  energy(sigma->0) =       23.58313899


--------------------------------------------------------------------------------------------------------




--------------------------------------- Iteration      1(   3)  ---------------------------------------


     EDDAV:  cpu time     26.0053: real time     27.8565
       DOS:  cpu time      0.0076: real time      0.0217
    --------------------------------------------
      LOOP:  cpu time     26.0128: real time     27.8780

 eigenvalue-minimisations  : 11072
 total energy-change (2. order) :-0.6218992E+02  (-0.6182977E+02)
 number of electron      58.0000000 magnetization      10.0000000
 augmentation part       58.0000000 magnetization      10.0000000

 Free energy of the ion-electron system (eV)
  ---------------------------------------------------
  alpha Z        PSCENC =        21.49062660
  Ewald energy   TEWEN  =     13302.37172639
  -Hartree energ DENC   =    -16550.99961431
  -exchange      EXHF   =         0.00000000
  -V(xc)+E(xc)   XCENC  =       131.78022992
  PAW double counting   =      3055.14876058    -3050.95216630
  entropy T*S    EENTRO =        -0.00000000
  eigenvalues    EBANDS =      -594.40899969
  atomic energy  EATOM  =      3646.96265231
  Solvation  Ediel_sol  =         0.00000000
  ---------------------------------------------------
  free energy    TOTEN  =       -38.60678451 eV

  energy without entropy =      -38.60678451  energy(sigma->0) =      -38.60678451


--------------------------------------------------------------------------------------------------------




--------------------------------------- Iteration      1(   4)  ---------------------------------------


     EDDAV:  cpu time     28.0539: real time     30.3661
       DOS:  cpu time      0.0107: real time      0.0232
    --------------------------------------------
      LOOP:  cpu time     28.0646: real time     30.3893

 eigenvalue-minimisations  : 12160
 total energy-change (2. order) :-0.1535268E+01  (-0.1533262E+01)
 number of electron      58.0000000 magnetization      10.0000000
 augmentation part       58.0000000 magnetization      10.0000000

 Free energy of the ion-electron system (eV)
  ---------------------------------------------------
  alpha Z        PSCENC =        21.49062660
  Ewald energy   TEWEN  =     13302.37172639
  -Hartree energ DENC   =    -16550.99961431
  -exchange      EXHF   =         0.00000000
  -V(xc)+E(xc)   XCENC  =       131.78022992
  PAW double counting   =      3055.14876058    -3050.95216630
  entropy T*S    EENTRO =        -0.00000000
  eigenvalues    EBANDS =      -595.94426728
  atomic energy  EATOM  =      3646.96265231
  Solvation  Ediel_sol  =         0.00000000
  ---------------------------------------------------
  free energy    TOTEN  =       -40.14205209 eV

  energy without entropy =      -40.14205209  energy(sigma->0) =      -40.14205209


--------------------------------------------------------------------------------------------------------




--------------------------------------- Iteration      1(   5)  ---------------------------------------


     EDDAV:  cpu time     28.9087: real time     32.7565
       DOS:  cpu time      0.0051: real time      0.2692
    CHARGE:  cpu time      1.6756: real time      1.9802
    MIXING:  cpu time      0.0102: real time      0.0409
    --------------------------------------------
      LOOP:  cpu time     30.5999: real time     35.0579

 eigenvalue-minimisations  : 12384
 total energy-change (2. order) :-0.4065167E-01  (-0.4064856E-01)
 number of electron      58.0000000 magnetization      10.0000000
 augmentation part        0.7544665 magnetization       6.4300337

 Broyden mixing:
  rms(total) = 0.23522E+01    rms(broyden)= 0.23522E+01
  rms(prec ) = 0.24340E+01
  weight for this iteration     100.00

 Free energy of the ion-electron system (eV)
  ---------------------------------------------------
  alpha Z        PSCENC =        21.49062660
  Ewald energy   TEWEN  =     13302.37172639
  -Hartree energ DENC   =    -16550.99961431
  -exchange      EXHF   =         0.00000000
  -V(xc)+E(xc)   XCENC  =       131.78022992
  PAW double counting   =      3055.14876058    -3050.95216630
  entropy T*S    EENTRO =        -0.00000000
  eigenvalues    EBANDS =      -595.98491895
  atomic energy  EATOM  =      3646.96265231
  Solvation  Ediel_sol  =         0.00000000
  ---------------------------------------------------
  free energy    TOTEN  =       -40.18270376 eV

  energy without entropy =      -40.18270376  energy(sigma->0) =      -40.18270376


--------------------------------------------------------------------------------------------------------




--------------------------------------- Iteration      1(   6)  ---------------------------------------


    POTLOK:  cpu time      0.2340: real time      0.3933
    SETDIJ:  cpu time      0.7664: real time      0.7906
     EDDAV:  cpu time     23.8521: real time     25.3291
       DOS:  cpu time      0.0037: real time      0.0145
    CHARGE:  cpu time      1.6502: real time      1.6977
    MIXING:  cpu time      0.0147: real time      0.1092
    --------------------------------------------
      LOOP:  cpu time     26.5211: real time     28.3241

 eigenvalue-minimisations  :  9888
 total energy-change (2. order) : 0.9466239E+01  (-0.6576927E+01)
 number of electron      58.0000000 magnetization       9.9999356
 augmentation part        3.6249798 magnetization       5.5490486

 Broyden mixing:
  rms(total) = 0.43549E+01    rms(broyden)= 0.43549E+01
  rms(prec ) = 0.43663E+01
  weight for this iteration     100.00

 eigenvalues of (default mixing * dielectric matrix)
  average eigenvalue GAMMA=   0.0399
  0.0399

 Free energy of the ion-electron system (eV)
  ---------------------------------------------------
  alpha Z        PSCENC =        21.49062660
  Ewald energy   TEWEN  =     13302.37172639
  -Hartree energ DENC   =    -16491.13549909
  -exchange      EXHF   =         0.00000000
  -V(xc)+E(xc)   XCENC  =       134.89346111
  PAW double counting   =      3350.88529559    -3339.08654793
  entropy T*S    EENTRO =        -0.00059359
  eigenvalues    EBANDS =      -657.09758636
  atomic energy  EATOM  =      3646.96265231
  Solvation  Ediel_sol  =         0.00000000
  ---------------------------------------------------
  free energy    TOTEN  =       -30.71646497 eV

  energy without entropy =      -30.71587138  energy(sigma->0) =      -30.71616817


--------------------------------------------------------------------------------------------------------




--------------------------------------- Iteration      1(   7)  ---------------------------------------


    POTLOK:  cpu time      0.2284: real time      0.2564
    SETDIJ:  cpu time      0.6436: real time      0.6530
     EDDAV:  cpu time     28.0150: real time     30.3649
       DOS:  cpu time      0.0078: real time      0.0376
    CHARGE:  cpu time      1.6518: real time      1.7569
    MIXING:  cpu time      0.0158: real time      0.1976
    --------------------------------------------
      LOOP:  cpu time     30.5625: real time     33.2667

 eigenvalue-minimisations  : 12160
 total energy-change (2. order) : 0.3811970E-01  (-0.4862518E+00)
 number of electron      58.0000000 magnetization      10.0007430
 augmentation part        3.1862175 magnetization       5.8884991

 Broyden mixing:
  rms(total) = 0.32032E+01    rms(broyden)= 0.32032E+01
  rms(prec ) = 0.32089E+01
  weight for this iteration     100.00

 eigenvalues of (default mixing * dielectric matrix)
  average eigenvalue GAMMA=   0.5848
  0.6859  0.4836

 Free energy of the ion-electron system (eV)
  ---------------------------------------------------
  alpha Z        PSCENC =        21.49062660
  Ewald energy   TEWEN  =     13302.37172639
  -Hartree energ DENC   =    -16495.64600668
  -exchange      EXHF   =         0.00000000
  -V(xc)+E(xc)   XCENC  =       134.23180555
  PAW double counting   =      3413.48167291    -3403.85571279
  entropy T*S    EENTRO =        -0.00000000
  eigenvalues    EBANDS =      -649.71510956
  atomic energy  EATOM  =      3646.96265231
  Solvation  Ediel_sol  =         0.00000000
  ---------------------------------------------------
  free energy    TOTEN  =       -30.67834527 eV

  energy without entropy =      -30.67834527  energy(sigma->0) =      -30.67834527


--------------------------------------------------------------------------------------------------------




--------------------------------------- Iteration      1(   8)  ---------------------------------------


    POTLOK:  cpu time      0.2152: real time      0.2560
    SETDIJ:  cpu time      0.6456: real time      0.6599
     EDDAV:  cpu time     30.8544: real time     33.3891
       DOS:  cpu time      0.0046: real time      0.0199
    CHARGE:  cpu time      1.6523: real time      1.6868
    MIXING:  cpu time      0.0123: real time      0.0492
    --------------------------------------------
      LOOP:  cpu time     33.3840: real time     36.0603

 eigenvalue-minimisations  : 13728
 total energy-change (2. order) : 0.2376423E+00  (-0.1391020E+00)
 number of electron      58.0000000 magnetization      10.0016411
 augmentation part        3.0720954 magnetization       5.9916520

 Broyden mixing:
  rms(total) = 0.22538E+01    rms(broyden)= 0.22538E+01
  rms(prec ) = 0.22591E+01
  weight for this iteration     100.00

 eigenvalues of (default mixing * dielectric matrix)
  average eigenvalue GAMMA=   0.8619
  0.3469  1.1194  1.1194

 Free energy of the ion-electron system (eV)
  ---------------------------------------------------
  alpha Z        PSCENC =        21.49062660
  Ewald energy   TEWEN  =     13302.37172639
  -Hartree energ DENC   =    -16488.44916381
  -exchange      EXHF   =         0.00000000
  -V(xc)+E(xc)   XCENC  =       134.80856400
  PAW double counting   =      3844.00498014    -3838.63084429
  entropy T*S    EENTRO =        -0.00000000
  eigenvalues    EBANDS =      -652.99924427
  atomic energy  EATOM  =      3646.96265231
  Solvation  Ediel_sol  =         0.00000000
  ---------------------------------------------------
  free energy    TOTEN  =       -30.44070294 eV

  energy without entropy =      -30.44070294  energy(sigma->0) =      -30.44070294


--------------------------------------------------------------------------------------------------------




--------------------------------------- Iteration      1(   9)  ---------------------------------------


    POTLOK:  cpu time      0.2190: real time      0.2489
    SETDIJ:  cpu time      0.6452: real time      0.6576
     EDDAV:  cpu time     26.3597: real time     27.6683
       DOS:  cpu time      0.0042: real time      0.0226
    CHARGE:  cpu time      1.6427: real time      1.6914
    MIXING:  cpu time      0.0117: real time      0.0344
    --------------------------------------------
      LOOP:  cpu time     28.8825: real time     30.3234

 eigenvalue-minimisations  : 11392
 total energy-change (2. order) : 0.2282381E+00  (-0.1142614E+00)
 number of electron      58.0000000 magnetization      10.0017490
 augmentation part        2.7509870 magnetization       6.0862108

 Broyden mixing:
  rms(total) = 0.67342E+00    rms(broyden)= 0.67342E+00
  rms(prec ) = 0.67724E+00
  weight for this iteration     100.00

 eigenvalues of (default mixing * dielectric matrix)
  average eigenvalue GAMMA=   1.0365
  1.5804  1.5804  0.3577  0.6277

 Free energy of the ion-electron system (eV)
  ---------------------------------------------------
  alpha Z        PSCENC =        21.49062660
  Ewald energy   TEWEN  =     13302.37172639
  -Hartree energ DENC   =    -16487.22860650
  -exchange      EXHF   =         0.00000000
  -V(xc)+E(xc)   XCENC  =       133.58613393
  PAW double counting   =      4264.16598976    -4264.53388756
  entropy T*S    EENTRO =        -0.00000000
  eigenvalues    EBANDS =      -647.02709980
  atomic energy  EATOM  =      3646.96265231
  Solvation  Ediel_sol  =         0.00000000
  ---------------------------------------------------
  free energy    TOTEN  =       -30.21246487 eV

  energy without entropy =      -30.21246487  energy(sigma->0) =      -30.21246487


--------------------------------------------------------------------------------------------------------




--------------------------------------- Iteration      1(  10)  ---------------------------------------


    POTLOK:  cpu time      0.2135: real time      0.2570
    SETDIJ:  cpu time      0.7619: real time      0.7731
     EDDAV:  cpu time     25.9560: real time     27.0554
       DOS:  cpu time      0.0075: real time      0.0212
    CHARGE:  cpu time      1.6568: real time      1.7246
    MIXING:  cpu time      0.0129: real time      0.0358
    --------------------------------------------
      LOOP:  cpu time     28.6086: real time     29.8670

 eigenvalue-minimisations  : 11232
 total energy-change (2. order) : 0.3117711E-01  (-0.3349838E-01)
 number of electron      58.0000000 magnetization      10.0016534
 augmentation part        2.5800439 magnetization       6.1564778

 Broyden mixing:
  rms(total) = 0.23794E+00    rms(broyden)= 0.23793E+00
  rms(prec ) = 0.23928E+00
  weight for this iteration     100.00

 eigenvalues of (default mixing * dielectric matrix)
  average eigenvalue GAMMA=   1.0975
  2.2745  1.1214  1.1214  0.3562  0.6142

 Free energy of the ion-electron system (eV)
  ---------------------------------------------------
  alpha Z        PSCENC =        21.49062660
  Ewald energy   TEWEN  =     13302.37172639
  -Hartree energ DENC   =    -16491.37342869
  -exchange      EXHF   =         0.00000000
  -V(xc)+E(xc)   XCENC  =       133.36107226
  PAW double counting   =      4321.74885378    -4324.00057064
  entropy T*S    EENTRO =        -0.00000000
  eigenvalues    EBANDS =      -640.74221978
  atomic energy  EATOM  =      3646.96265231
  Solvation  Ediel_sol  =         0.00000000
  ---------------------------------------------------
  free energy    TOTEN  =       -30.18128776 eV

  energy without entropy =      -30.18128776  energy(sigma->0) =      -30.18128776


--------------------------------------------------------------------------------------------------------




--------------------------------------- Iteration      1(  11)  ---------------------------------------


    POTLOK:  cpu time      0.2164: real time      0.2432
    SETDIJ:  cpu time      0.6466: real time      0.6591
     EDDAV:  cpu time     28.0210: real time     29.3620
       DOS:  cpu time      0.0099: real time      0.0278
    CHARGE:  cpu time      1.6463: real time      1.7158
    MIXING:  cpu time      0.0128: real time      0.0472
    --------------------------------------------
      LOOP:  cpu time     30.5530: real time     32.0550

 eigenvalue-minimisations  : 12320
 total energy-change (2. order) :-0.4475449E-02  (-0.1338596E-01)
 number of electron      58.0000000 magnetization      10.0014253
 augmentation part        2.4852759 magnetization       6.2154138

 Broyden mixing:
  rms(total) = 0.11345E+00    rms(broyden)= 0.11344E+00
  rms(prec ) = 0.11426E+00
  weight for this iteration     100.00

 eigenvalues of (default mixing * dielectric matrix)
  average eigenvalue GAMMA=   1.2237
  2.7136  1.4600  1.4600  0.3553  0.6765  0.6765

 Free energy of the ion-electron system (eV)
  ---------------------------------------------------
  alpha Z        PSCENC =        21.49062660
  Ewald energy   TEWEN  =     13302.37172639
  -Hartree energ DENC   =    -16494.31561390
  -exchange      EXHF   =         0.00000000
  -V(xc)+E(xc)   XCENC  =       133.44632999
  PAW double counting   =      4337.94696288    -4340.85599395
  entropy T*S    EENTRO =        -0.00000000
  eigenvalues    EBANDS =      -637.23245354
  atomic energy  EATOM  =      3646.96265231
  Solvation  Ediel_sol  =         0.00000000
  ---------------------------------------------------
  free energy    TOTEN  =       -30.18576321 eV

  energy without entropy =      -30.18576321  energy(sigma->0) =      -30.18576321


--------------------------------------------------------------------------------------------------------




--------------------------------------- Iteration      1(  12)  ---------------------------------------


    POTLOK:  cpu time      0.2149: real time      0.2421
    SETDIJ:  cpu time      0.6481: real time      0.6616
     EDDAV:  cpu time     28.4192: real time     29.4617
       DOS:  cpu time      0.0083: real time      0.0215
    CHARGE:  cpu time      1.6449: real time      1.7030
    MIXING:  cpu time      0.0129: real time      0.0488
    --------------------------------------------
      LOOP:  cpu time     30.9484: real time     32.1387

 eigenvalue-minimisations  : 12704
 total energy-change (2. order) :-0.1067277E-01  (-0.4571861E-02)
 number of electron      58.0000000 magnetization      10.0013411
 augmentation part        2.5232330 magnetization       6.1942369

 Broyden mixing:
  rms(total) = 0.33713E-01    rms(broyden)= 0.33710E-01
  rms(prec ) = 0.34109E-01
  weight for this iteration     100.00

 eigenvalues of (default mixing * dielectric matrix)
  average eigenvalue GAMMA=   1.1724
  2.5646  1.5172  1.5172  0.3553  0.9596  0.6463  0.6463

 Free energy of the ion-electron system (eV)
  ---------------------------------------------------
  alpha Z        PSCENC =        21.49062660
  Ewald energy   TEWEN  =     13302.37172639
  -Hartree energ DENC   =    -16495.23103527
  -exchange      EXHF   =         0.00000000
  -V(xc)+E(xc)   XCENC  =       133.48586222
  PAW double counting   =      4349.30633646    -4352.40853891
  entropy T*S    EENTRO =        -0.00000000
  eigenvalues    EBANDS =      -636.17406578
  atomic energy  EATOM  =      3646.96265231
  Solvation  Ediel_sol  =         0.00000000
  ---------------------------------------------------
  free energy    TOTEN  =       -30.19643598 eV

  energy without entropy =      -30.19643598  energy(sigma->0) =      -30.19643598


--------------------------------------------------------------------------------------------------------




--------------------------------------- Iteration      1(  13)  ---------------------------------------


    POTLOK:  cpu time      0.2148: real time      0.2546
    SETDIJ:  cpu time      0.6526: real time      0.6624
     EDDAV:  cpu time     27.9407: real time     28.9238
       DOS:  cpu time      0.0048: real time      0.0206
    CHARGE:  cpu time      1.6403: real time      1.6996
    MIXING:  cpu time      0.0127: real time      0.0409
    --------------------------------------------
      LOOP:  cpu time     30.4660: real time     31.6024

 eigenvalue-minimisations  : 12384
 total energy-change (2. order) :-0.2491771E-02  (-0.3467409E-03)
 number of electron      58.0000000 magnetization      10.0012593
 augmentation part        2.5224330 magnetization       6.1972443

 Broyden mixing:
  rms(total) = 0.15871E-01    rms(broyden)= 0.15871E-01
  rms(prec ) = 0.16078E-01
  weight for this iteration     100.00

 eigenvalues of (default mixing * dielectric matrix)
  average eigenvalue GAMMA=   1.1384
  2.5987  1.5408  1.5408  1.0326  0.3553  0.7663  0.6362  0.6362

 Free energy of the ion-electron system (eV)
  ---------------------------------------------------
  alpha Z        PSCENC =        21.49062660
  Ewald energy   TEWEN  =     13302.37172639
  -Hartree energ DENC   =    -16494.92471212
  -exchange      EXHF   =         0.00000000
  -V(xc)+E(xc)   XCENC  =       133.43422421
  PAW double counting   =      4341.78029258    -4344.75812990
  entropy T*S    EENTRO =        -0.00000000
  eigenvalues    EBANDS =      -636.55560781
  atomic energy  EATOM  =      3646.96265231
  Solvation  Ediel_sol  =         0.00000000
  ---------------------------------------------------
  free energy    TOTEN  =       -30.19892775 eV

  energy without entropy =      -30.19892775  energy(sigma->0) =      -30.19892775


--------------------------------------------------------------------------------------------------------




--------------------------------------- Iteration      1(  14)  ---------------------------------------


    POTLOK:  cpu time      0.2150: real time      0.2492
    SETDIJ:  cpu time      0.7657: real time      0.7784
     EDDAV:  cpu time     28.0982: real time     29.1182
       DOS:  cpu time      0.0044: real time      0.0166
    CHARGE:  cpu time      1.6489: real time      1.7039
    MIXING:  cpu time      0.0125: real time      0.0293
    --------------------------------------------
      LOOP:  cpu time     30.7446: real time     31.8953

 eigenvalue-minimisations  : 12512
 total energy-change (2. order) :-0.1938521E-02  (-0.6485345E-04)
 number of electron      58.0000000 magnetization      10.0011457
 augmentation part        2.5163961 magnetization       6.2018281

 Broyden mixing:
  rms(total) = 0.96652E-02    rms(broyden)= 0.96648E-02
  rms(prec ) = 0.97188E-02
  weight for this iteration     100.00

 eigenvalues of (default mixing * dielectric matrix)
  average eigenvalue GAMMA=   1.1330
  2.6991  1.5871  1.5871  0.3553  0.9684  0.9684  0.6970  0.6671  0.6671

 Free energy of the ion-electron system (eV)
  ---------------------------------------------------
  alpha Z        PSCENC =        21.49062660
  Ewald energy   TEWEN  =     13302.37172639
  -Hartree energ DENC   =    -16494.93067498
  -exchange      EXHF   =         0.00000000
  -V(xc)+E(xc)   XCENC  =       133.42081037
  PAW double counting   =      4339.58363136    -4342.56432196
  entropy T*S    EENTRO =        -0.00000000
  eigenvalues    EBANDS =      -636.53531636
  atomic energy  EATOM  =      3646.96265231
  Solvation  Ediel_sol  =         0.00000000
  ---------------------------------------------------
  free energy    TOTEN  =       -30.20086627 eV

  energy without entropy =      -30.20086627  energy(sigma->0) =      -30.20086627


--------------------------------------------------------------------------------------------------------




--------------------------------------- Iteration      1(  15)  ---------------------------------------


    POTLOK:  cpu time      0.2148: real time      0.2500
    SETDIJ:  cpu time      0.6468: real time      0.6569
     EDDAV:  cpu time     27.4730: real time     28.8446
       DOS:  cpu time      0.0096: real time      0.0252
    CHARGE:  cpu time      1.6493: real time      1.6902
    MIXING:  cpu time      0.0135: real time      0.0338
    --------------------------------------------
      LOOP:  cpu time     30.0072: real time     31.5015

 eigenvalue-minimisations  : 12032
 total energy-change (2. order) :-0.1501860E-02  (-0.1267609E-04)
 number of electron      58.0000000 magnetization      10.0009572
 augmentation part        2.5156558 magnetization       6.2030218

 Broyden mixing:
  rms(total) = 0.51185E-02    rms(broyden)= 0.51182E-02
  rms(prec ) = 0.51604E-02
  weight for this iteration     100.00

 eigenvalues of (default mixing * dielectric matrix)
  average eigenvalue GAMMA=   1.2326
  3.0273  1.7851  1.7851  1.2675  1.2675  0.3553  0.7737  0.7737  0.6452  0.6452

 Free energy of the ion-electron system (eV)
  ---------------------------------------------------
  alpha Z        PSCENC =        21.49062660
  Ewald energy   TEWEN  =     13302.37172639
  -Hartree energ DENC   =    -16494.86439430
  -exchange      EXHF   =         0.00000000
  -V(xc)+E(xc)   XCENC  =       133.42290954
  PAW double counting   =      4339.42037145    -4342.41699929
  entropy T*S    EENTRO =        -0.00000000
  eigenvalues    EBANDS =      -636.58926083
  atomic energy  EATOM  =      3646.96265231
  Solvation  Ediel_sol  =         0.00000000
  ---------------------------------------------------
  free energy    TOTEN  =       -30.20236813 eV

  energy without entropy =      -30.20236813  energy(sigma->0) =      -30.20236813


--------------------------------------------------------------------------------------------------------




--------------------------------------- Iteration      1(  16)  ---------------------------------------


    POTLOK:  cpu time      0.2161: real time      0.2500
    SETDIJ:  cpu time      0.6474: real time      0.6571
     EDDAV:  cpu time     26.6612: real time     28.0537
       DOS:  cpu time      0.0052: real time      0.0197
    CHARGE:  cpu time      1.6463: real time      1.6885
    MIXING:  cpu time      0.0142: real time      0.0396
    --------------------------------------------
      LOOP:  cpu time     29.1902: real time     30.7079

 eigenvalue-minimisations  : 11584
 total energy-change (2. order) :-0.1482809E-02  (-0.9733761E-05)
 number of electron      58.0000000 magnetization      10.0008818
 augmentation part        2.5178881 magnetization       6.2019215

 Broyden mixing:
  rms(total) = 0.32364E-02    rms(broyden)= 0.32363E-02
  rms(prec ) = 0.33037E-02
  weight for this iteration     100.00

 eigenvalues of (default mixing * dielectric matrix)
  average eigenvalue GAMMA=   1.2440
  3.1597  2.2869  1.6133  1.6133  0.3553  0.9577  0.9577  0.7380  0.7380  0.6448
  0.6193

 Free energy of the ion-electron system (eV)
  ---------------------------------------------------
  alpha Z        PSCENC =        21.49062660
  Ewald energy   TEWEN  =     13302.37172639
  -Hartree energ DENC   =    -16494.66957042
  -exchange      EXHF   =         0.00000000
  -V(xc)+E(xc)   XCENC  =       133.41912547
  PAW double counting   =      4338.22986642    -4341.24059122
  entropy T*S    EENTRO =        -0.00000000
  eigenvalues    EBANDS =      -636.76768648
  atomic energy  EATOM  =      3646.96265231
  Solvation  Ediel_sol  =         0.00000000
  ---------------------------------------------------
  free energy    TOTEN  =       -30.20385094 eV

  energy without entropy =      -30.20385094  energy(sigma->0) =      -30.20385094


--------------------------------------------------------------------------------------------------------




--------------------------------------- Iteration      1(  17)  ---------------------------------------


    POTLOK:  cpu time      0.2245: real time      0.2566
    SETDIJ:  cpu time      0.6461: real time      0.6564
     EDDAV:  cpu time     27.9577: real time     29.0424
       DOS:  cpu time      0.0142: real time      0.0339
    CHARGE:  cpu time      1.6545: real time      1.7172
    MIXING:  cpu time      0.0136: real time      0.0371
    --------------------------------------------
      LOOP:  cpu time     30.5107: real time     31.7434

 eigenvalue-minimisations  : 12288
 total energy-change (2. order) :-0.4961994E-03  (-0.3863790E-05)
 number of electron      58.0000000 magnetization      10.0008124
 augmentation part        2.5159485 magnetization       6.2029214

 Broyden mixing:
  rms(total) = 0.94289E-03    rms(broyden)= 0.94264E-03
  rms(prec ) = 0.98654E-03
  weight for this iteration     100.00

 eigenvalues of (default mixing * dielectric matrix)
  average eigenvalue GAMMA=   1.2249
  3.0843  2.4182  1.6429  1.6429  0.3553  1.0323  1.0323  0.7771  0.7771  0.6663
  0.6577  0.6126

 Free energy of the ion-electron system (eV)
  ---------------------------------------------------
  alpha Z        PSCENC =        21.49062660
  Ewald energy   TEWEN  =     13302.37172639
  -Hartree energ DENC   =    -16494.64879379
  -exchange      EXHF   =         0.00000000
  -V(xc)+E(xc)   XCENC  =       133.41348912
  PAW double counting   =      4337.23904557    -4340.25009009
  entropy T*S    EENTRO =        -0.00000000
  eigenvalues    EBANDS =      -636.78300326
  atomic energy  EATOM  =      3646.96265231
  Solvation  Ediel_sol  =         0.00000000
  ---------------------------------------------------
  free energy    TOTEN  =       -30.20434714 eV

  energy without entropy =      -30.20434714  energy(sigma->0) =      -30.20434714


--------------------------------------------------------------------------------------------------------




--------------------------------------- Iteration      1(  18)  ---------------------------------------


    POTLOK:  cpu time      0.2127: real time      0.2412
    SETDIJ:  cpu time      0.6453: real time      0.6552
     EDDAV:  cpu time     27.2000: real time     28.3812
       DOS:  cpu time      0.0040: real time      0.0142
    CHARGE:  cpu time      1.6597: real time      1.7234
    MIXING:  cpu time      0.0134: real time      0.0385
    --------------------------------------------
      LOOP:  cpu time     29.7351: real time     31.0541

 eigenvalue-minimisations  : 11872
 total energy-change (2. order) :-0.4355782E-03  (-0.3722945E-06)
 number of electron      58.0000000 magnetization      10.0006946
 augmentation part        2.5156779 magnetization       6.2030049

 Broyden mixing:
  rms(total) = 0.68386E-03    rms(broyden)= 0.68379E-03
  rms(prec ) = 0.73583E-03
  weight for this iteration     100.00

 eigenvalues of (default mixing * dielectric matrix)
  average eigenvalue GAMMA=   1.2066
  3.1848  2.3760  1.5604  1.5604  1.3847  0.3553  0.8544  0.8544  0.8019  0.8019
  0.6592  0.6592  0.6330

 Free energy of the ion-electron system (eV)
  ---------------------------------------------------
  alpha Z        PSCENC =        21.49062660
  Ewald energy   TEWEN  =     13302.37172639
  -Hartree energ DENC   =    -16494.59986012
  -exchange      EXHF   =         0.00000000
  -V(xc)+E(xc)   XCENC  =       133.41297438
  PAW double counting   =      4337.13834105    -4340.14959808
  entropy T*S    EENTRO =        -0.00000000
  eigenvalues    EBANDS =      -636.83164525
  atomic energy  EATOM  =      3646.96265231
  Solvation  Ediel_sol  =         0.00000000
  ---------------------------------------------------
  free energy    TOTEN  =       -30.20478272 eV

  energy without entropy =      -30.20478272  energy(sigma->0) =      -30.20478272


--------------------------------------------------------------------------------------------------------




--------------------------------------- Iteration      1(  19)  ---------------------------------------


    POTLOK:  cpu time      0.2139: real time      0.2432
    SETDIJ:  cpu time      0.6460: real time      0.6554
     EDDAV:  cpu time     26.4889: real time     27.6092
       DOS:  cpu time      0.0049: real time      0.0461
    CHARGE:  cpu time      1.6522: real time      1.6982
    MIXING:  cpu time      0.0149: real time      0.0488
    --------------------------------------------
      LOOP:  cpu time     29.0209: real time     30.3006

 eigenvalue-minimisations  : 11488
 total energy-change (2. order) :-0.5559720E-03  (-0.5117590E-06)
 number of electron      58.0000000 magnetization      10.0005259
 augmentation part        2.5161970 magnetization       6.2025708

 Broyden mixing:
  rms(total) = 0.59419E-03    rms(broyden)= 0.59418E-03
  rms(prec ) = 0.62507E-03
  weight for this iteration     100.00

 eigenvalues of (default mixing * dielectric matrix)
  average eigenvalue GAMMA=   1.2579
  3.3575  2.4421  2.2700  1.5722  1.5722  0.3553  0.9836  0.9836  0.7633  0.7633
  0.6442  0.6442  0.6294  0.6294

 Free energy of the ion-electron system (eV)
  ---------------------------------------------------
  alpha Z        PSCENC =        21.49062660
  Ewald energy   TEWEN  =     13302.37172639
  -Hartree energ DENC   =    -16494.52315284
  -exchange      EXHF   =         0.00000000
  -V(xc)+E(xc)   XCENC  =       133.41295412
  PAW double counting   =      4337.18654256    -4340.19924779
  entropy T*S    EENTRO =        -0.00000000
  eigenvalues    EBANDS =      -636.90744004
  atomic energy  EATOM  =      3646.96265231
  Solvation  Ediel_sol  =         0.00000000
  ---------------------------------------------------
  free energy    TOTEN  =       -30.20533869 eV

  energy without entropy =      -30.20533869  energy(sigma->0) =      -30.20533869


--------------------------------------------------------------------------------------------------------




--------------------------------------- Iteration      1(  20)  ---------------------------------------


    POTLOK:  cpu time      0.2251: real time      0.2556
    SETDIJ:  cpu time      0.6464: real time      0.6564
     EDDAV:  cpu time     26.4952: real time     27.5831
       DOS:  cpu time      0.0041: real time      0.0208
    CHARGE:  cpu time      1.6490: real time      1.6876
    MIXING:  cpu time      0.0136: real time      0.0376
    --------------------------------------------
      LOOP:  cpu time     29.0333: real time     30.2410

 eigenvalue-minimisations  : 11488
 total energy-change (2. order) :-0.6334480E-03  (-0.4927307E-06)
 number of electron      58.0000000 magnetization      10.0004488
 augmentation part        2.5163383 magnetization       6.2023984

 Broyden mixing:
  rms(total) = 0.62309E-03    rms(broyden)= 0.62308E-03
  rms(prec ) = 0.64207E-03
  weight for this iteration     100.00

 eigenvalues of (default mixing * dielectric matrix)
  average eigenvalue GAMMA=   1.2668
  3.5234  2.8109  2.3088  1.6083  1.6083  1.1900  0.3553  0.8488  0.8488  0.7089
  0.7089  0.6586  0.6586  0.6161  0.5486

 Free energy of the ion-electron system (eV)
  ---------------------------------------------------
  alpha Z        PSCENC =        21.49062660
  Ewald energy   TEWEN  =     13302.37172639
  -Hartree energ DENC   =    -16494.43119212
  -exchange      EXHF   =         0.00000000
  -V(xc)+E(xc)   XCENC  =       133.41177558
  PAW double counting   =      4337.17446242    -4340.18806597
  entropy T*S    EENTRO =        -0.00000000
  eigenvalues    EBANDS =      -636.99795735
  atomic energy  EATOM  =      3646.96265231
  Solvation  Ediel_sol  =         0.00000000
  ---------------------------------------------------
  free energy    TOTEN  =       -30.20597214 eV

  energy without entropy =      -30.20597214  energy(sigma->0) =      -30.20597214


--------------------------------------------------------------------------------------------------------




--------------------------------------- Iteration      1(  21)  ---------------------------------------


    POTLOK:  cpu time      0.2141: real time      0.2448
    SETDIJ:  cpu time      0.6519: real time      0.6640
     EDDAV:  cpu time     27.1577: real time     27.9126
       DOS:  cpu time      0.0049: real time      0.0166
    CHARGE:  cpu time      1.6533: real time      1.6938
    MIXING:  cpu time      0.0151: real time      0.0385
    --------------------------------------------
      LOOP:  cpu time     29.6970: real time     30.5714

 eigenvalue-minimisations  : 11872
 total energy-change (2. order) :-0.2348611E-03  (-0.1880228E-06)
 number of electron      58.0000000 magnetization      10.0002978
 augmentation part        2.5160140 magnetization       6.2024111

 Broyden mixing:
  rms(total) = 0.33085E-03    rms(broyden)= 0.33083E-03
  rms(prec ) = 0.34020E-03
  weight for this iteration     100.00

 eigenvalues of (default mixing * dielectric matrix)
  average eigenvalue GAMMA=   1.3753
  4.7565  3.1573  2.4860  1.6081  1.6081  1.2860  1.1053  0.3553  0.7877  0.7877
  0.7925  0.7925  0.6467  0.6467  0.6269  0.5606

 Free energy of the ion-electron system (eV)
  ---------------------------------------------------
  alpha Z        PSCENC =        21.49062660
  Ewald energy   TEWEN  =     13302.37172639
  -Hartree energ DENC   =    -16494.40416940
  -exchange      EXHF   =         0.00000000
  -V(xc)+E(xc)   XCENC  =       133.41059320
  PAW double counting   =      4337.17922664    -4340.19296201
  entropy T*S    EENTRO =        -0.00000000
  eigenvalues    EBANDS =      -637.02390073
  atomic energy  EATOM  =      3646.96265231
  Solvation  Ediel_sol  =         0.00000000
  ---------------------------------------------------
  free energy    TOTEN  =       -30.20620700 eV

  energy without entropy =      -30.20620700  energy(sigma->0) =      -30.20620700


--------------------------------------------------------------------------------------------------------




--------------------------------------- Iteration      1(  22)  ---------------------------------------


    POTLOK:  cpu time      0.2194: real time      0.2538
    SETDIJ:  cpu time      0.6506: real time      0.6638
     EDDAV:  cpu time     26.8055: real time     27.9185
       DOS:  cpu time      0.0072: real time      0.0193
    CHARGE:  cpu time      1.6555: real time      1.7071
    MIXING:  cpu time      0.0167: real time      0.0454
    --------------------------------------------
      LOOP:  cpu time     29.3547: real time     30.6065

 eigenvalue-minimisations  : 11680
 total energy-change (2. order) :-0.3810158E-03  (-0.3562122E-06)
 number of electron      58.0000000 magnetization      10.0002188
 augmentation part        2.5159258 magnetization       6.2023711

 Broyden mixing:
  rms(total) = 0.20066E-03    rms(broyden)= 0.20063E-03
  rms(prec ) = 0.20294E-03
  weight for this iteration     100.00

[...]
     44       3.2297      0.00000
     45       3.3082      0.00000
     46       3.3651      0.00000
     47       3.4879      0.00000
     48       3.5756      0.00000
     49       3.6408      0.00000
     50       3.8415      0.00000
     51       3.9333      0.00000
     52       4.0845      0.00000
     53       4.1253      0.00000
     54       4.2277      0.00000
     55       4.2760      0.00000
     56       4.4924      0.00000
     57       4.5746      0.00000
     58       4.6854      0.00000
     59       4.8629      0.00000
     60       4.9495      0.00000
     61       5.0488      0.00000
     62       5.0989      0.00000
     63       5.3111      0.00000
     64       5.3843      0.00000

 k-point    33 :       0.2857    0.2857    0.0000
  band No.  band energies     occupation 
      1     -19.8187      1.00000
      2     -19.6658      1.00000
      3     -19.4006      1.00000
      4     -19.2781      1.00000
      5     -19.2272      1.00000
      6     -19.1690      1.00000
      7      -9.7492      1.00000
      8      -9.5417      1.00000
      9      -9.0370      1.00000
     10      -8.9898      1.00000
     11      -8.8700      1.00000
     12      -8.5947      1.00000
     13      -8.5677      1.00000
     14      -8.4476      1.00000
     15      -8.1608      1.00000
     16      -7.7548      1.00000
     17      -7.6125      1.00000
     18      -7.2841      1.00000
     19      -7.1918      1.00000
     20      -6.9633      1.00000
     21      -6.8889      1.00000
     22      -6.7722      1.00000
     23      -6.5795      1.00000
     24      -6.5769      1.00000
     25      -4.3572      0.00000
     26      -4.3260      0.00000
     27      -4.2817      0.00000
     28      -4.2129      0.00000
     29      -4.1416      0.00000
     30      -4.0741      0.00000
     31      -3.8872      0.00000
     32      -3.8109      0.00000
     33      -3.7885      0.00000
     34      -3.7038      0.00000
     35       1.5172      0.00000
     36       1.6418      0.00000
     37       1.9062      0.00000
     38       2.2667      0.00000
     39       2.3228      0.00000
     40       2.4525      0.00000
     41       2.9106      0.00000
     42       2.9484      0.00000
     43       2.9528      0.00000
     44       3.1706      0.00000
     45       3.3307      0.00000
     46       3.4529      0.00000
     47       3.4640      0.00000
     48       3.7041      0.00000
     49       3.7203      0.00000
     50       3.7654      0.00000
     51       3.8405      0.00000
     52       3.9596      0.00000
     53       4.0387      0.00000
     54       4.2826      0.00000
     55       4.3359      0.00000
     56       4.3653      0.00000
     57       4.5578      0.00000
     58       4.5697      0.00000
     59       4.8918      0.00000
     60       4.9482      0.00000
     61       5.0233      0.00000
     62       5.1213      0.00000
     63       5.3579      0.00000
     64       5.4338      0.00000

 k-point    34 :       0.3571    0.2857    0.0000
  band No.  band energies     occupation 
      1     -19.7731      1.00000
      2     -19.7093      1.00000
      3     -19.4062      1.00000
      4     -19.2611      1.00000
      5     -19.2412      1.00000
      6     -19.1708      1.00000
      7      -9.6917      1.00000
      8      -9.5797      1.00000
      9      -9.0240      1.00000
     10      -8.9513      1.00000
     11      -8.9436      1.00000
     12      -8.5769      1.00000
     13      -8.5592      1.00000
     14      -8.4432      1.00000
     15      -8.2278      1.00000
     16      -7.7636      1.00000
     17      -7.5264      1.00000
     18      -7.2774      1.00000
     19      -7.2085      1.00000
     20      -6.9859      1.00000
     21      -6.8874      1.00000
     22      -6.7613      1.00000
     23      -6.5881      1.00000
     24      -6.5811      1.00000
     25      -4.3409      0.00000
     26      -4.3174      0.00000
     27      -4.3013      0.00000
     28      -4.2237      0.00000
     29      -4.1290      0.00000
     30      -4.0955      0.00000
     31      -3.8855      0.00000
     32      -3.8006      0.00000
     33      -3.7889      0.00000
     34      -3.6962      0.00000
     35       1.5212      0.00000
     36       1.6132      0.00000
     37       2.0661      0.00000
     38       2.1721      0.00000
     39       2.2773      0.00000
     40       2.6453      0.00000
     41       2.6829      0.00000
     42       2.9377      0.00000
     43       3.1702      0.00000
     44       3.2473      0.00000
     45       3.3619      0.00000
     46       3.3827      0.00000
     47       3.5027      0.00000
     48       3.5246      0.00000
     49       3.6212      0.00000
     50       3.6875      0.00000
     51       3.8434      0.00000
     52       4.0127      0.00000
     53       4.0750      0.00000
     54       4.0853      0.00000
     55       4.3162      0.00000
     56       4.3221      0.00000
     57       4.4772      0.00000
     58       4.6911      0.00000
     59       4.7792      0.00000
     60       4.9567      0.00000
     61       5.1464      0.00000
     62       5.1575      0.00000
     63       5.2936      0.00000
     64       5.4236      0.00000


--------------------------------------------------------------------------------------------------------


 soft charge-density along one line, spin component           1
         0         1         2         3         4         5         6         7         8         9
 total charge-density along one line
 
 soft charge-density along one line, spin component           2
         0         1         2         3         4         5         6         7         8         9
 total charge-density along one line
 
 pseudopotential strength for first ion, spin component:           1
-16.618   0.019  -0.000  -0.000   0.000 -16.917   0.016  -0.000
  0.019 -16.597   0.000   0.000  -0.000   0.016 -16.899   0.000
 -0.000   0.000 -16.635  -0.000   0.000  -0.000   0.000 -16.930
 -0.000   0.000  -0.000 -16.597  -0.019  -0.000   0.000  -0.000
  0.000  -0.000   0.000  -0.019 -16.618   0.000  -0.000   0.000
-16.917   0.016  -0.000  -0.000   0.000 -17.196   0.011  -0.000
  0.016 -16.899   0.000   0.000  -0.000   0.011 -17.182   0.000
 -0.000   0.000 -16.930  -0.000   0.000  -0.000   0.000 -17.207
 -0.000   0.000  -0.000 -16.899  -0.016  -0.000   0.000  -0.000
  0.000  -0.000   0.000  -0.016 -16.917   0.000  -0.000   0.000
 -0.000  -0.000  -0.000   0.000  -0.000  -0.000  -0.000  -0.000
 -0.000  -0.000  -0.001   0.000  -0.000  -0.000  -0.000  -0.001
 -0.000   0.000  -0.000  -0.000   0.002  -0.000   0.000  -0.000
 -0.000   0.000   0.000  -0.000  -0.000  -0.000   0.000   0.000
  0.002  -0.000   0.000   0.000  -0.000   0.002  -0.000   0.000
 -0.000   0.000  -0.000  -0.000   0.003  -0.000   0.000  -0.000
 -0.000   0.000   0.000  -0.000  -0.000  -0.000   0.000   0.000
  0.003  -0.000   0.000   0.000  -0.000   0.002  -0.000   0.000
 pseudopotential strength for first ion, spin component:           2
-11.012  -0.477  -0.000   0.001   0.000 -11.347  -0.481  -0.000
 -0.477 -11.378   0.000   0.000   0.001  -0.481 -11.716   0.000
 -0.000   0.000 -10.645  -0.000  -0.000  -0.000   0.000 -10.977
  0.001   0.000  -0.000 -11.378   0.477   0.001   0.000  -0.000
  0.000   0.001  -0.000   0.477 -11.012   0.000   0.001  -0.000
-11.347  -0.481  -0.000   0.001   0.000 -11.634  -0.490  -0.000
 -0.481 -11.716   0.000   0.000   0.001  -0.490 -12.009   0.000
 -0.000   0.000 -10.977  -0.000  -0.000  -0.000   0.000 -11.257
  0.001   0.000  -0.000 -11.716   0.481   0.001   0.000  -0.000
  0.000   0.001  -0.000   0.481 -11.347   0.000   0.001  -0.000
 -0.000  -0.000  -0.000   0.000  -0.000  -0.000  -0.000  -0.000
 -0.000  -0.000  -0.001   0.000  -0.000  -0.000  -0.000  -0.001
 -0.000   0.000  -0.000   0.000  -0.001  -0.000   0.000  -0.000
  0.000   0.000   0.000  -0.000   0.000   0.000   0.000   0.000
 -0.001   0.000   0.000   0.000  -0.000  -0.001   0.000   0.000
 -0.000   0.000  -0.000   0.000  -0.001  -0.000   0.000  -0.000
  0.000   0.000   0.000  -0.000   0.000   0.000   0.000   0.000
 -0.001   0.000   0.000   0.000  -0.000  -0.001   0.000   0.000
 total augmentation occupancy for first ion, spin component:           1
  7.035   2.283  -0.000  -0.003  -0.000  -4.852  -2.222   0.000   0.003  -0.000  -0.000  -0.000  -0.001   0.000  -0.092   0.000
  2.283   8.580   0.000  -0.000  -0.003  -2.223  -6.341  -0.000  -0.000   0.003   0.000   0.000  -0.000   0.000  -0.003   0.000
 -0.000   0.000   5.302   0.000  -0.000  -0.000  -0.000  -3.156  -0.000   0.000   0.048  -0.003   0.000   0.000  -0.000  -0.000
 -0.003   0.000   0.000   8.580  -2.283   0.003   0.000  -0.000  -6.341   2.223   0.000   0.000   0.003   0.000  -0.000  -0.000
  0.000  -0.003  -0.000  -2.283   7.035   0.000   0.003   0.000   2.222  -4.852  -0.000   0.000  -0.092  -0.000   0.001   0.006
 -4.852  -2.223  -0.000   0.003   0.000   3.910   2.292  -0.000  -0.003   0.000   0.000   0.000   0.001   0.000   0.099  -0.000
 -2.222  -6.341  -0.000   0.000   0.003   2.292   5.444   0.000   0.000  -0.003   0.000   0.000   0.000   0.000  -0.002  -0.000
  0.000  -0.000  -3.156  -0.000   0.000  -0.000   0.000   2.152   0.000  -0.000  -0.053   0.005  -0.000  -0.001   0.000   0.000
  0.003  -0.000  -0.000  -6.341   2.222  -0.003   0.000   0.000   5.444  -2.292  -0.000  -0.000   0.002  -0.000   0.000  -0.000
 -0.000   0.003   0.000   2.223  -4.852   0.000  -0.003  -0.000  -2.292   3.910   0.000  -0.000   0.099   0.000  -0.001  -0.008
 -0.000   0.000   0.048  -0.000  -0.000   0.000   0.000  -0.053  -0.000   0.000   1.497  -0.143  -0.000  -0.000  -0.000   0.000
  0.000   0.000  -0.003   0.000   0.000   0.000   0.000   0.005  -0.000  -0.000  -0.143   0.030   0.000  -0.000  -0.000   0.000
 -0.001  -0.000   0.000   0.003  -0.092   0.001   0.000  -0.000   0.002   0.099   0.000   0.000   0.226   0.000   0.000  -0.020
 -0.000   0.000   0.000   0.000  -0.000   0.000  -0.000  -0.001  -0.000   0.000  -0.000  -0.000   0.000   0.221   0.000   0.000
 -0.092  -0.003  -0.000  -0.000   0.001   0.099  -0.002   0.000   0.000  -0.001  -0.000  -0.000   0.000  -0.000   0.226  -0.000
  0.000   0.000  -0.000  -0.000   0.006  -0.000  -0.000   0.000  -0.000  -0.008   0.000  -0.000  -0.020   0.000  -0.000   0.003
  0.000   0.000   0.000   0.000  -0.000   0.000  -0.000  -0.000  -0.000   0.000   0.000  -0.000  -0.000  -0.019  -0.000  -0.000
  0.006   0.000   0.000   0.000  -0.000  -0.008   0.000  -0.000  -0.000   0.000  -0.000   0.000   0.000  -0.000  -0.020   0.000
 total augmentation occupancy for first ion, spin component:           2
  6.691   2.001  -0.000  -0.002   0.000  -4.330  -1.842  -0.000   0.002   0.000  -0.000  -0.000  -0.000   0.000  -0.040   0.000
  2.001   8.065   0.000   0.000  -0.002  -1.842  -5.602  -0.000   0.000   0.002   0.000   0.000   0.000   0.000   0.005   0.000
 -0.000   0.000   5.176   0.000  -0.000   0.000  -0.000  -2.935  -0.000   0.000   0.008   0.005   0.000   0.000  -0.000   0.000
 -0.002   0.000   0.000   8.065  -2.001   0.002  -0.000  -0.000  -5.602   1.842   0.000   0.000  -0.005   0.000   0.000   0.000
 -0.000  -0.002  -0.000  -2.001   6.691  -0.000   0.002   0.000   1.842  -4.330  -0.000  -0.000  -0.040  -0.000   0.000  -0.002
 -4.330  -1.842   0.000   0.002  -0.000   2.902   1.566  -0.000  -0.002   0.000   0.000   0.000   0.000  -0.000   0.028  -0.000
 -1.842  -5.602  -0.000  -0.000   0.002   1.566   3.981   0.000   0.000  -0.002   0.000   0.000   0.000   0.000   0.000  -0.000
 -0.000  -0.000  -2.935  -0.000   0.000  -0.000   0.000   1.718   0.000  -0.000  -0.005  -0.004  -0.000  -0.000   0.000  -0.000
  0.002   0.000  -0.000  -5.602   1.842  -0.002   0.000   0.000   3.981  -1.566   0.000  -0.000  -0.000  -0.000   0.000  -0.000
  0.000   0.002   0.000   1.842  -4.330   0.000  -0.002  -0.000  -1.566   2.902   0.000   0.000   0.028   0.000  -0.000   0.002
 -0.000   0.000   0.008   0.000  -0.000   0.000   0.000  -0.005   0.000   0.000  -0.246   0.104   0.000   0.000   0.000   0.000
 -0.000   0.000   0.005   0.000  -0.000   0.000   0.000  -0.004  -0.000   0.000   0.104  -0.012   0.000  -0.000   0.000   0.000
 -0.000   0.000   0.000  -0.005  -0.040   0.000   0.000  -0.000  -0.000   0.028   0.000  -0.000  -0.002   0.000   0.000   0.006
  0.000   0.000   0.000   0.000  -0.000  -0.000   0.000  -0.000  -0.000   0.000   0.000  -0.000   0.000  -0.004  -0.000   0.000
 -0.040   0.005  -0.000   0.000   0.000   0.028   0.000   0.000   0.000  -0.000   0.000  -0.000  -0.000   0.000  -0.002   0.000
  0.000   0.000   0.000   0.000  -0.002  -0.000  -0.000  -0.000  -0.000   0.002  -0.000   0.000   0.006   0.000   0.000  -0.001
 -0.000   0.000   0.000  -0.000  -0.000   0.000   0.000  -0.000  -0.000   0.000  -0.000   0.000   0.000   0.006  -0.000   0.000
 -0.002  -0.000   0.000   0.000  -0.000   0.002   0.000  -0.000  -0.000   0.000  -0.000   0.000  -0.000   0.000   0.006   0.000


------------------------ aborting loop because EDIFF is reached ----------------------------------------


    CHARGE:  cpu time      1.6172: real time      1.6658
    FORLOC:  cpu time      0.0075: real time      0.0078
    FORNL :  cpu time      2.9093: real time      2.9629
    STRESS:  cpu time     13.3037: real time     13.4831
    FORCOR:  cpu time      0.2129: real time      0.2653
    FORHAR:  cpu time      0.0268: real time      0.0289
    MIXING:  cpu time      0.0184: real time      0.0369
    OFIELD:  cpu time      0.0006: real time      0.0013

  DFT-D2 method for vdW energy calculation
  -------------------------------------------------------------------
  Number of pair interactions contributing to vdW energy:   19954
  Edisp (eV):   -0.79254
    FORVDW:  cpu time      0.0036: real time      0.0053

  FORCE on cell =-STRESS in cart. coord.  units (eV):
  Direction    XX          YY          ZZ          XY          YZ          ZX
  --------------------------------------------------------------------------------------
  Alpha Z    21.49063    21.49063    21.49063
  Ewald   15175.22766 15175.21978-17048.07722    -0.00300    -0.00070     0.00347
  Hartree 15916.66914 15916.66748-15339.02221     0.00020     0.00003    -0.00020
  E(xc)    -236.12668  -236.12669  -236.44067     0.00000     0.00000    -0.00000
  Local  -32122.42791-32122.41845 31352.61272     0.00197     0.00030    -0.00228
  n-local   453.05817   453.36662   452.61052    -0.25804     0.08333    -0.04237
  augment   -34.95136   -34.95135   -35.17012     0.00007     0.00005    -0.00013
  Kinetic   826.96948   826.31685   831.93392     0.22570    -0.12986     0.05188
  Fock        0.00000     0.00000     0.00000     0.00000     0.00000     0.00000
  vdW        -1.02561    -1.02560    -0.03263     0.00000     0.00000    -0.00000
  -------------------------------------------------------------------------------------
  Total      -1.28862    -1.28861    -0.09505     0.00000    -0.00000     0.00000
  in kB      -2.16213    -2.16213    -0.15949     0.00000    -0.00000     0.00000
  external pressure =       -1.49 kB  Pullay stress =        0.00 kB


 VOLUME and BASIS-vectors are now :
 -----------------------------------------------------------------------------
  energy-cutoff  :      500.00
  volume of cell :      954.89
      direct lattice vectors                 reciprocal lattice vectors
     6.181820000  0.000000000  0.000000000     0.161764658  0.093394924  0.000000000
    -3.090910000  5.353610000  0.000000000     0.000000000  0.186789848  0.000000000
     0.000000000  0.000000000 28.852900000     0.000000000  0.000000000  0.034658561

  length of vectors
     6.181820000  6.181817262 28.852900000     0.186789766  0.186789848  0.034658561


 FORCES acting on ions
    electron-ion (+dipol)            ewald-force                    non-local-force                 convergence-correction
 -----------------------------------------------------------------------------------------------
   0.266E-03 -.115E-03 -.342E+00   0.269E-02 -.274E-02 0.318E+00   0.000E+00 0.000E+00 0.145E-01   -.242E-06 0.378E-06 0.799E-06
   -.122E-03 0.307E-04 -.595E+00   -.494E-03 0.146E-02 0.581E+00   0.000E+00 0.000E+00 0.305E-04   -.240E-07 -.223E-06 0.947E-06
   -.864E+02 -.117E+00 -.562E+03   0.880E+02 0.115E+00 0.564E+03   -.171E+01 0.104E-02 -.250E+01   0.327E-04 -.133E-04 0.131E-03
   0.433E+02 -.747E+02 -.562E+03   -.441E+02 0.762E+02 0.564E+03   0.854E+00 -.148E+01 -.250E+01   -.499E-05 0.349E-04 0.131E-03
   0.431E+02 0.748E+02 -.562E+03   -.439E+02 -.763E+02 0.564E+03   0.856E+00 0.148E+01 -.250E+01   -.277E-04 -.215E-04 0.131E-03
   -.430E+02 -.747E+02 0.562E+03   0.439E+02 0.761E+02 -.564E+03   -.850E+00 -.148E+01 0.251E+01   0.495E-05 0.347E-04 -.129E-03
   0.862E+02 0.527E-01 0.562E+03   -.878E+02 -.558E-01 -.564E+03   0.170E+01 0.103E-02 0.251E+01   -.329E-04 -.133E-04 -.129E-03
   -.431E+02 0.746E+02 0.562E+03   0.440E+02 -.761E+02 -.564E+03   -.852E+00 0.147E+01 0.251E+01   0.279E-04 -.214E-04 -.129E-03
 -----------------------------------------------------------------------------------------------
   0.377E-01 -.217E-01 -.464E-01   0.142E-13 -.284E-13 0.227E-12   -.333E-15 -.222E-15 0.464E-01   -.353E-06 0.206E-06 0.533E-05
 
 
 POSITION                                       TOTAL-FORCE (eV/Angst)
 -----------------------------------------------------------------------------------
      6.18181      0.00001      6.52844        -0.000000      0.000000     -0.009681
      3.09090      1.78454      6.52946         0.000000     -0.000000     -0.013467
      3.95191      3.56890      7.89583         0.001629      0.002162      0.003706
      1.11510      1.63801      7.89583        -0.002687      0.000329      0.003706
      4.20570      0.14672      7.89582         0.001058     -0.002492      0.003706
      5.06572      1.63597      5.15917         0.000549      0.001386      0.004011
      2.23215      3.56906      5.15917        -0.001475     -0.000217      0.004011
      1.97484      0.14859      5.15916         0.000926     -0.001168      0.004011
 -----------------------------------------------------------------------------------
    total drift:                                0.037735     -0.021734      0.000039


--------------------------------------------------------------------------------------------------------



  FREE ENERGIE OF THE ION-ELECTRON SYSTEM (eV)
  ---------------------------------------------------
  free  energy   TOTEN  =       -30.99934120 eV

  energy  without entropy=      -30.99934120  energy(sigma->0) =      -30.99934120
 


--------------------------------------------------------------------------------------------------------


    POTLOK:  cpu time      0.9793: real time      1.0004


--------------------------------------------------------------------------------------------------------


     LOOP+:  cpu time    849.6293: real time    895.6309
    4ORBIT:  cpu time      0.0000: real time      0.0000

 total amount of memory used by VASP MPI-rank0   393134. kBytes
=======================================================================

   base      :      30000. kBytes
   nonl-proj :     241571. kBytes
   fftplans  :      19623. kBytes
   grid      :      48494. kBytes
   one-center:        248. kBytes
   wavefun   :      53198. kBytes
 
  
  
 General timing and accounting informations for this job:
 ========================================================
  
                  Total CPU time used (sec):      861.894
                            User time (sec):      838.309
                          System time (sec):       23.585
                         Elapsed time (sec):      913.964
  
                   Maximum memory used (kb):      658484.
                   Average memory used (kb):          N/A
  
                          Minor page faults:       419767
                          Major page faults:       103988
                 Voluntary context switches:       147478
