 vasp.6.4.1 05Apr23 (build Aug  9 2024 23:13:06) complex                         
 executed on              LinuxNV date 2025.10.29  08:37:43
 running    1 mpi-ranks, with    1 threads/rank, on    1 nodes
 distrk:  each k-point on    1 cores,    1 groups
 distr:  one band on NCORE=   1 cores,    1 groups
 OpenACC runtime initialized ...    1 GPUs detected


--------------------------------------------------------------------------------------------------------


 INCAR:
   PREC = Accurate
   EDIFF = 1E-5
   ENCUT = 520
   NSW = 300
   IBRION = 2
   ISMEAR = 0
   SIGMA = 0.05
   ISIF = 3
   ISPIN = 2
   MAGMOM = 6 -6 0 0 0 0 0 0
   LREAL = F
   LWAVE = F
   LCHARG = F
   IVDW = 10
   LDAU = .TRUE.
   LDAUTYPE = 2
   LDAUL = 2  -1
   LDAUU = 4.5 0.0
   LDAUJ = 0.9 0.0

 POTCAR:    PAW_PBE Fe 06Sep2000                  
 POTCAR:    PAW_PBE Cl 06Sep2000                  
 POTCAR:    PAW_PBE Fe 06Sep2000                  
   VRHFIN =Fe:  d7 s1                                                                               
   LEXCH  = PE                                                                                      
   EATOM  =   594.3153 eV,   43.6809 Ry                                                             
                                                                                                    
   TITEL  = PAW_PBE Fe 06Sep2000                                                                    
   LULTRA =        F    use ultrasoft PP ?                                                          
   IUNSCR =        1    unscreen: 0-lin 1-nonlin 2-no                                               
   RPACOR =    2.000    partial core radius                                                         
   POMASS =   55.847; ZVAL   =    8.000    mass and valenz                                          
   RCORE  =    2.300    outmost cutoff radius                                                       
   RWIGS  =    2.460; RWIGS  =    1.302    wigner-seitz radius (au A)                               
   ENMAX  =  267.882; ENMIN  =  200.911 eV                                                          
   RCLOC  =    1.701    cutoff for local pot                                                        
   LCOR   =        T    correct aug charges                                                         
   LPAW   =        T    paw PP                                                                      
   EAUG   =  511.368                                                                                
   DEXC   =    0.000                                                                                
   RMAX   =    2.356    core radius for proj-oper                                                   
   RAUG   =    1.300    factor for augmentation sphere                                              
   RDEP   =    2.442    radius for radial grids                                                     
   RDEPT  =    1.890    core radius for aug-charge                                                  
                                                                                                    
   Atomic configuration                                                                             
    9 entries                                                                                       
     n  l   j            E        occ.                                                              
     1  0  0.50     -6993.8440   2.0000                                                             
     2  0  0.50      -814.6047   2.0000                                                             
     2  1  1.50      -693.3689   6.0000                                                             
     3  0  0.50       -89.4732   2.0000                                                             
     3  1  1.50       -55.6373   6.0000                                                             
     3  2  2.50        -3.8151   7.0000                                                             
     4  0  0.50        -4.2551   1.0000                                                             
     4  1  1.50        -3.4015   0.0000                                                             
     4  3  2.50        -1.3606   0.0000                                                             
   Description                                                                                      
     l       E           TYP  RCUT    TYP  RCUT                                                     
     2     -3.8151135     23  2.300                                                                 
     2     -5.1756961     23  2.300                                                                 
     0     -4.2550963     23  2.300                                                                 
     0      7.2035603     23  2.300                                                                 
     1     -2.7211652     23  2.300                                                                 
     1     18.4316424     23  2.300                                                                 
  local pseudopotential read in
  partial core-charges read in
  partial kinetic energy density read in
  atomic valenz-charges read in
  non local Contribution for L=            2  read in
    real space projection operators read in
  non local Contribution for L=            2  read in
    real space projection operators read in
  non local Contribution for L=            0  read in
    real space projection operators read in
  non local Contribution for L=            0  read in
    real space projection operators read in
  non local Contribution for L=            1  read in
    real space projection operators read in
  non local Contribution for L=            1  read in
    real space projection operators read in
    PAW grid and wavefunctions read in
 
   number of l-projection  operators is LMAX  =            6
   number of lm-projection operators is LMMAX =           18
 
 POTCAR:    PAW_PBE Cl 06Sep2000                  
   VRHFIN =Cl: s2p5                                                                                 
   LEXCH  = PE                                                                                      
   EATOM  =   409.7259 eV,   30.1140 Ry                                                             
                                                                                                    
   TITEL  = PAW_PBE Cl 06Sep2000                                                                    
   LULTRA =        F    use ultrasoft PP ?                                                          
   IUNSCR =        1    unscreen: 0-lin 1-nonlin 2-no                                               
   RPACOR =    1.500    partial core radius                                                         
   POMASS =   35.453; ZVAL   =    7.000    mass and valenz                                          
   RCORE  =    1.900    outmost cutoff radius                                                       
   RWIGS  =    2.100; RWIGS  =    1.111    wigner-seitz radius (au A)                               
   ENMAX  =  262.472; ENMIN  =  196.854 eV                                                          
   ICORE  =        2    local potential                                                             
   LCOR   =        T    correct aug charges                                                         
   LPAW   =        T    paw PP                                                                      
   EAUG   =  356.192                                                                                
   DEXC   =    0.000                                                                                
   RMAX   =    1.945    core radius for proj-oper                                                   
   RAUG   =    1.300    factor for augmentation sphere                                              
   RDEP   =    2.020    radius for radial grids                                                     
   RDEPT  =    1.678    core radius for aug-charge                                                  
                                                                                                    
   Atomic configuration                                                                             
    6 entries                                                                                       
     n  l   j            E        occ.                                                              
     1  0  0.50     -2751.1850   2.0000                                                             
     2  0  0.50      -252.6861   2.0000                                                             
     2  1  1.50      -191.6157   6.0000                                                             
     3  0  0.50       -20.6916   2.0000                                                             
     3  1  0.50        -8.5949   5.0000                                                             
     3  2  1.50        -8.1635   0.0000                                                             
   Description                                                                                      
     l       E           TYP  RCUT    TYP  RCUT                                                     
     0    -20.6915656     23  1.900                                                                 
     0    -22.0521482     23  1.900                                                                 
     1     -8.5948577     23  1.900                                                                 
     1     -5.3847331     23  1.900                                                                 
     2     -8.1634956     23  1.900                                                                 
  local pseudopotential read in
  partial core-charges read in
  partial kinetic energy density read in
  atomic valenz-charges read in
  non local Contribution for L=            0  read in
    real space projection operators read in
  non local Contribution for L=            0  read in
    real space projection operators read in
  non local Contribution for L=            1  read in
    real space projection operators read in
  non local Contribution for L=            1  read in
    real space projection operators read in
    PAW grid and wavefunctions read in
 
   number of l-projection  operators is LMAX  =            4
   number of lm-projection operators is LMMAX =            8
 
  PAW_PBE Fe 06Sep2000                  :
 energy of atom  1       EATOM= -594.3153
 kinetic energy error for atom=    0.0026 (will be added to EATOM!!)
  PAW_PBE Cl 06Sep2000                  :
 energy of atom  2       EATOM= -409.7259
 kinetic energy error for atom=    0.0023 (will be added to EATOM!!)
 
 
 POSCAR: Fe Cl
  positions in direct lattice
  velocities in cartesian coordinates
 exchange correlation table for  LEXCH =        8
   RHO(1)=    0.500       N(1)  =     2000
   RHO(2)=  100.500       N(2)  =     4000
 


--------------------------------------------------------------------------------------------------------


 ion  position               nearest neighbor table
   1  0.000  1.000  0.363-   4 2.40   3 2.40   5 2.40   7 2.40   8 2.40   6 2.40
   2  0.667  0.333  0.363-   6 2.40   7 2.40   8 2.40   5 2.40   4 2.40   3 2.40
   3  0.978  0.667  0.440-   1 2.40   2 2.40
   4  0.333  0.311  0.440-   1 2.40   2 2.40
   5  0.689  0.022  0.440-   1 2.40   2 2.40
   6  0.978  0.311  0.286-   2 2.40   1 2.40
   7  0.689  0.667  0.286-   2 2.40   1 2.40
   8  0.333  0.022  0.286-   2 2.40   1 2.40
 
  LATTYP: Found a hexagonal cell.
 ALAT       =     6.0941075138
 C/A-ratio  =     2.9117638891
  
  Lattice vectors:
  
 A1 = (   6.0941075138,   0.0000000000,   0.0000000000)
 A2 = (  -3.0470537521,   5.2776486662,   0.0000000000)
 A3 = (   0.0000000000,   0.0000000000,  17.7446021951)


Analysis of symmetry for initial positions (statically):
=====================================================================
 Subroutine PRICEL returns:
 Original cell was already a primitive cell.
 

 Routine SETGRP: Setting up the symmetry group for a 
 hexagonal supercell.


 Subroutine GETGRP returns: Found  3 space group operations
 (whereof  3 operations were pure point group operations)
 out of a pool of 24 trial point group operations.


The static configuration has the point symmetry C_3 .


Analysis of symmetry for dynamics (positions and initial velocities):
=====================================================================
 Subroutine PRICEL returns:
 Original cell was already a primitive cell.
 

 Routine SETGRP: Setting up the symmetry group for a 
 hexagonal supercell.


 Subroutine GETGRP returns: Found  3 space group operations
 (whereof  3 operations were pure point group operations)
 out of a pool of 24 trial point group operations.


The dynamic configuration has the point symmetry C_3 .


Analysis of structural, dynamic, and magnetic symmetry:
=====================================================================
 Subroutine PRICEL returns:
 Original cell was already a primitive cell.
 

 Routine SETGRP: Setting up the symmetry group for a 
 hexagonal supercell.


 Subroutine GETGRP returns: Found  3 space group operations
 (whereof  3 operations were pure point group operations)
 out of a pool of 24 trial point group operations.


The overall configuration has the point symmetry C_3 .


 Subroutine INISYM returns: Found  3 space group operations
 (whereof  3 operations are pure point group operations),
 and found     1 'primitive' translations


----------------------------------------------------------------------------------------

                                     Primitive cell                                     

  volume of cell :     570.7118

  direct lattice vectors                    reciprocal lattice vectors
     6.094107514  0.000000000  0.000000000     0.164092937  0.094739160 -0.000000000
    -3.047053752  5.277648666  0.000000000     0.000000000  0.189478319  0.000000000
     0.000000000  0.000000000 17.744602195     0.000000000 -0.000000000  0.056355166

  length of vectors
     6.094107514  6.094104693 17.744602195     0.189478232  0.189478319  0.056355166

  position of ions in fractional coordinates (direct lattice)
     0.000000915  0.999999362  0.362752714
     0.666665863  0.333333877  0.362553756
     0.977626885  0.666548893  0.439801125
     0.333450865  0.311078349  0.439800210
     0.688919710  0.022376001  0.439800626
     0.977719371  0.310939405  0.285521099
     0.689059763  0.666784099  0.285522002
     0.333216669  0.022279999  0.285519720

  ion indices of the primitive-cell ions
   primitive index   ion index
                 1           1
                 2           2
                 3           3
                 4           4
                 5           5
                 6           6
                 7           7
                 8           8

----------------------------------------------------------------------------------------

 
 
 KPOINTS: Automatic mesh                          

Automatic generation of k-mesh.
 Grid dimensions read from file:
 generate k-points for:   24   24    1

 Generating k-lattice:

  Cartesian coordinates                     Fractional coordinates (reciprocal lattice)
     0.006837206  0.003947465 -0.000000000     0.041666667 -0.000000000  0.000000000
     0.000000000  0.007894930  0.000000000     0.000000000  0.041666667  0.000000000
     0.000000000 -0.000000000  0.056355166     0.000000000  0.000000000  1.000000000

  Length of vectors
     0.007894926  0.007894930  0.056355166

  Shift w.r.t. Gamma in fractional coordinates (k-lattice)
     0.000000000  0.000000000  0.000000000

 
 Subroutine IBZKPT returns following result:
 ===========================================
 
 Found     98 irreducible k-points:
 
 Following reciprocal coordinates:
            Coordinates               Weight
  0.000000  0.000000  0.000000      1.000000
  0.041667  0.000000  0.000000      6.000000
  0.083333  0.000000  0.000000      6.000000
  0.125000  0.000000  0.000000      6.000000
  0.166667  0.000000  0.000000      6.000000
  0.208333  0.000000  0.000000      6.000000
  0.250000  0.000000  0.000000      6.000000
  0.291667  0.000000  0.000000      6.000000
  0.333333  0.000000  0.000000      6.000000
  0.375000  0.000000  0.000000      6.000000
  0.416667  0.000000  0.000000      6.000000
  0.458333  0.000000  0.000000      6.000000
  0.500000  0.000000  0.000000      3.000000
  0.041667  0.041667  0.000000      6.000000
  0.083333  0.041667  0.000000      6.000000
 -0.083333  0.125000  0.000000      6.000000
  0.125000  0.041667  0.000000      6.000000
 -0.125000  0.166667  0.000000      6.000000
  0.166667  0.041667  0.000000      6.000000
 -0.166667  0.208333  0.000000      6.000000
  0.208333  0.041667  0.000000      6.000000
 -0.208333  0.250000  0.000000      6.000000
  0.250000  0.041667  0.000000      6.000000
 -0.250000  0.291667  0.000000      6.000000
  0.291667  0.041667  0.000000      6.000000
 -0.291667  0.333333  0.000000      6.000000
  0.333333  0.041667  0.000000      6.000000
 -0.333333  0.375000  0.000000      6.000000
  0.375000  0.041667  0.000000      6.000000
 -0.375000  0.416667  0.000000      6.000000
  0.416667  0.041667  0.000000      6.000000
 -0.416667  0.458333  0.000000      6.000000
  0.458333  0.041667  0.000000      6.000000
 -0.458333  0.500000  0.000000      6.000000
  0.083333  0.083333  0.000000      6.000000
  0.125000  0.083333  0.000000      6.000000
 -0.125000  0.208333  0.000000      6.000000
  0.166667  0.083333  0.000000      6.000000
 -0.166667  0.250000  0.000000      6.000000
  0.208333  0.083333  0.000000      6.000000
 -0.208333  0.291667  0.000000      6.000000
  0.250000  0.083333  0.000000      6.000000
 -0.250000  0.333333  0.000000      6.000000
  0.291667  0.083333  0.000000      6.000000
 -0.291667  0.375000  0.000000      6.000000
  0.333333  0.083333  0.000000      6.000000
 -0.333333  0.416667  0.000000      6.000000
  0.375000  0.083333  0.000000      6.000000
 -0.375000  0.458333  0.000000      6.000000
  0.416667  0.083333  0.000000      6.000000
 -0.416667  0.500000  0.000000      6.000000
  0.458333  0.083333  0.000000      6.000000
  0.125000  0.125000  0.000000      6.000000
  0.166667  0.125000  0.000000      6.000000
 -0.166667  0.291667  0.000000      6.000000
  0.208333  0.125000  0.000000      6.000000
 -0.208333  0.333333  0.000000      6.000000
  0.250000  0.125000  0.000000      6.000000
 -0.250000  0.375000  0.000000      6.000000
  0.291667  0.125000  0.000000      6.000000
 -0.291667  0.416667  0.000000      6.000000
  0.333333  0.125000  0.000000      6.000000
 -0.333333  0.458333  0.000000      6.000000
  0.375000  0.125000  0.000000      6.000000
 -0.375000  0.500000  0.000000      6.000000
  0.416667  0.125000  0.000000      6.000000
 -0.416667 -0.458333  0.000000      6.000000
  0.166667  0.166667  0.000000      6.000000
  0.208333  0.166667  0.000000      6.000000
 -0.208333  0.375000  0.000000      6.000000
  0.250000  0.166667  0.000000      6.000000
 -0.250000  0.416667  0.000000      6.000000
  0.291667  0.166667  0.000000      6.000000
 -0.291667  0.458333  0.000000      6.000000
  0.333333  0.166667  0.000000      6.000000
 -0.333333  0.500000  0.000000      6.000000
  0.375000  0.166667  0.000000      6.000000
 -0.375000 -0.458333  0.000000      6.000000
  0.416667  0.166667  0.000000      6.000000
  0.208333  0.208333  0.000000      6.000000
  0.250000  0.208333  0.000000      6.000000
 -0.250000  0.458333  0.000000      6.000000
  0.291667  0.208333  0.000000      6.000000
 -0.291667  0.500000  0.000000      6.000000
  0.333333  0.208333  0.000000      6.000000
 -0.333333 -0.458333  0.000000      6.000000
  0.375000  0.208333  0.000000      6.000000
 -0.375000 -0.416667  0.000000      6.000000
  0.250000  0.250000  0.000000      6.000000
  0.291667  0.250000  0.000000      6.000000
 -0.291667 -0.458333  0.000000      6.000000
  0.333333  0.250000  0.000000      6.000000
 -0.333333 -0.416667  0.000000      6.000000
  0.375000  0.250000  0.000000      6.000000
  0.291667  0.291667  0.000000      6.000000
  0.333333  0.291667  0.000000      6.000000
 -0.333333 -0.375000  0.000000      6.000000
  0.333333  0.333333  0.000000      2.000000
 
 Following cartesian coordinates:
            Coordinates               Weight
  0.000000  0.000000  0.000000      1.000000
  0.006837  0.003947  0.000000      6.000000
  0.013674  0.007895  0.000000      6.000000
  0.020512  0.011842  0.000000      6.000000
  0.027349  0.015790  0.000000      6.000000
  0.034186  0.019737  0.000000      6.000000
  0.041023  0.023685  0.000000      6.000000
  0.047860  0.027632  0.000000      6.000000
  0.054698  0.031580  0.000000      6.000000
  0.061535  0.035527  0.000000      6.000000
  0.068372  0.039475  0.000000      6.000000
  0.075209  0.043422  0.000000      6.000000
  0.082046  0.047370  0.000000      3.000000
  0.006837  0.011842  0.000000      6.000000
  0.013674  0.015790  0.000000      6.000000
 -0.013674  0.015790  0.000000      6.000000
  0.020512  0.019737  0.000000      6.000000
 -0.020512  0.019737  0.000000      6.000000
  0.027349  0.023685  0.000000      6.000000
 -0.027349  0.023685  0.000000      6.000000
  0.034186  0.027632  0.000000      6.000000
 -0.034186  0.027632  0.000000      6.000000
  0.041023  0.031580  0.000000      6.000000
 -0.041023  0.031580  0.000000      6.000000
  0.047860  0.035527  0.000000      6.000000
 -0.047860  0.035527  0.000000      6.000000
  0.054698  0.039475  0.000000      6.000000
 -0.054698  0.039475  0.000000      6.000000
  0.061535  0.043422  0.000000      6.000000
 -0.061535  0.043422  0.000000      6.000000
  0.068372  0.047370  0.000000      6.000000
 -0.068372  0.047370  0.000000      6.000000
  0.075209  0.051317  0.000000      6.000000
 -0.075209  0.051317  0.000000      6.000000
  0.013674  0.023685  0.000000      6.000000
  0.020512  0.027632  0.000000      6.000000
 -0.020512  0.027632  0.000000      6.000000
  0.027349  0.031580  0.000000      6.000000
 -0.027349  0.031580  0.000000      6.000000
  0.034186  0.035527  0.000000      6.000000
 -0.034186  0.035527  0.000000      6.000000
  0.041023  0.039475  0.000000      6.000000
 -0.041023  0.039475  0.000000      6.000000
  0.047860  0.043422  0.000000      6.000000
 -0.047860  0.043422  0.000000      6.000000
  0.054698  0.047370  0.000000      6.000000
 -0.054698  0.047370  0.000000      6.000000
  0.061535  0.051317  0.000000      6.000000
 -0.061535  0.051317  0.000000      6.000000
  0.068372  0.055265  0.000000      6.000000
 -0.068372  0.055265  0.000000      6.000000
  0.075209  0.059212  0.000000      6.000000
  0.020512  0.035527  0.000000      6.000000
  0.027349  0.039475  0.000000      6.000000
 -0.027349  0.039475  0.000000      6.000000
  0.034186  0.043422  0.000000      6.000000
 -0.034186  0.043422  0.000000      6.000000
  0.041023  0.047370  0.000000      6.000000
 -0.041023  0.047370  0.000000      6.000000
  0.047860  0.051317  0.000000      6.000000
 -0.047860  0.051317  0.000000      6.000000
  0.054698  0.055265  0.000000      6.000000
 -0.054698  0.055265  0.000000      6.000000
  0.061535  0.059212  0.000000      6.000000
 -0.061535  0.059212  0.000000      6.000000
  0.068372  0.063159  0.000000      6.000000
 -0.068372 -0.126319  0.000000      6.000000
  0.027349  0.047370  0.000000      6.000000
  0.034186  0.051317  0.000000      6.000000
 -0.034186  0.051317  0.000000      6.000000
  0.041023  0.055265  0.000000      6.000000
 -0.041023  0.055265  0.000000      6.000000
  0.047860  0.059212  0.000000      6.000000
 -0.047860  0.059212  0.000000      6.000000
  0.054698  0.063159  0.000000      6.000000
 -0.054698  0.063159  0.000000      6.000000
  0.061535  0.067107  0.000000      6.000000
 -0.061535 -0.122371  0.000000      6.000000
  0.068372  0.071054  0.000000      6.000000
  0.034186  0.059212  0.000000      6.000000
  0.041023  0.063159  0.000000      6.000000
 -0.041023  0.063159  0.000000      6.000000
  0.047860  0.067107  0.000000      6.000000
 -0.047860  0.067107  0.000000      6.000000
  0.054698  0.071054  0.000000      6.000000
 -0.054698 -0.118424  0.000000      6.000000
  0.061535  0.075002  0.000000      6.000000
 -0.061535 -0.114476  0.000000      6.000000
  0.041023  0.071054  0.000000      6.000000
  0.047860  0.075002  0.000000      6.000000
 -0.047860 -0.114476  0.000000      6.000000
  0.054698  0.078949  0.000000      6.000000
 -0.054698 -0.110529  0.000000      6.000000
  0.061535  0.082897  0.000000      6.000000
  0.047860  0.082897  0.000000      6.000000
  0.054698  0.086844  0.000000      6.000000
 -0.054698 -0.102634  0.000000      6.000000
  0.054698  0.094739  0.000000      2.000000
 


--------------------------------------------------------------------------------------------------------




 Dimension of arrays:
   k-points           NKPTS =     98   k-points in BZ     NKDIM =     98   number of bands    NBANDS=     34
   number of dos      NEDOS =    301   number of ions     NIONS =      8
   non local maximal  LDIM  =      6   non local SUM 2l+1 LMDIM =     18
   total plane-waves  NPLWV = 322560
   max r-space proj   IRMAX =      1   max aug-charges    IRDMAX=  20330
   dimension x,y,z NGX =    48 NGY =   48 NGZ =  140
   dimension x,y,z NGXF=    96 NGYF=   96 NGZF=  280
   support grid    NGXF=    96 NGYF=   96 NGZF=  280
   ions per type =               2   6
   NGX,Y,Z   is equivalent  to a cutoff of  13.09, 13.09, 13.12 a.u.
   NGXF,Y,Z  is equivalent  to a cutoff of  26.19, 26.19, 26.23 a.u.

 SYSTEM =  unknown system                          
 POSCAR =  Fe Cl                                   

 Startparameter for this run:
   NWRITE =      2    write-flag & timer
   PREC   = accura    normal or accurate (medium, high low for compatibility)
   ISTART =      0    job   : 0-new  1-cont  2-samecut
   ICHARG =      2    charge: 1-file 2-atom 10-const
   ISPIN  =      2    spin polarized calculation?
   LNONCOLLINEAR =      F non collinear calculations
   LSORBIT =      F    spin-orbit coupling
   INIWAV =      1    electr: 0-lowe 1-rand  2-diag
   LASPH  =      F    aspherical Exc in radial PAW
 Electronic Relaxation 1
   ENCUT  =  520.0 eV  38.22 Ry    6.18 a.u.  11.33 11.33 32.99*2*pi/ulx,y,z
   ENINI  =  520.0     initial cutoff
   ENAUG  =  511.4 eV  augmentation charge cutoff
   NELM   =     60;   NELMIN=  2; NELMDL=  0     # of ELM steps 
   EDIFF  = 0.1E-04   stopping-criterion for ELM
   LREAL  =      F    real-space projection
   NLSPLINE    = F    spline interpolate recip. space projectors
   LCOMPAT=      F    compatible to vasp.4.4
   GGA_COMPAT  = T    GGA compatible to vasp.4.4-vasp.4.6
   LMAXPAW     = -100 max onsite density
   LMAXMIX     =    2 max onsite mixed and CHGCAR
   VOSKOWN=      0    Vosko Wilk Nusair interpolation
   ROPT   =    0.00000   0.00000
 Ionic relaxation
   EDIFFG = 0.1E-03   stopping-criterion for IOM
   NSW    =    300    number of steps for IOM
   NBLOCK =      1;   KBLOCK =    300    inner block; outer block 
   IBRION =      2    ionic relax: 0-MD 1-quasi-New 2-CG
   NFREE  =      1    steps in history (QN), initial steepest desc. (CG)
   ISIF   =      3    stress and relaxation
   IWAVPR =     11    prediction:  0-non 1-charg 2-wave 3-comb
   ISYM   =      2    0-nonsym 1-usesym 2-fastsym
   LCORR  =      T    Harris-Foulkes like correction to forces

   POTIM  = 0.5000    time-step for ionic-motion
   TEIN   =    0.0    initial temperature
   TEBEG  =    0.0;   TEEND  =   0.0 temperature during run
   SMASS  =  -3.00    Nose mass-parameter (am)
   estimated Nose-frequenzy (Omega)   =  0.10E-29 period in steps = 0.13E+47 mass=  -0.849E-27a.u.
   SCALEE = 1.0000    scale energy and forces
   NPACO  =    256;   APACO  = 10.0  distance and # of slots for P.C.
   PSTRESS=    0.0 pullay stress

  Mass of Ions in am
   POMASS =  55.85 35.45
  Ionic Valenz
   ZVAL   =   8.00  7.00
  Atomic Wigner-Seitz radii
   RWIGS  =  -1.00 -1.00
  virtual crystal weights 
   VCA    =   1.00  1.00
   NELECT =      58.0000    total number of electrons
   NUPDOWN=      -1.0000    fix difference up-down

 DOS related values:
   EMIN   =  10.00;   EMAX   =-10.00  energy-range for DOS
   EFERMI =   0.00;   METHOD = LEGACY      
   ISMEAR =     0;   SIGMA  =   0.05  broadening in eV -4-tet -1-fermi 0-gaus

 Electronic relaxation 2 (details)
   IALGO  =     38    algorithm
   LDIAG  =      T    sub-space diagonalisation (order eigenvalues)
   LSUBROT=      F    optimize rotation matrix (better conditioning)
   TURBO    =      0    0=normal 1=particle mesh
   IRESTART =      0    0=no restart 2=restart with 2 vectors
   NREBOOT  =      0    no. of reboots
   NMIN     =      0    reboot dimension
   EREF     =   0.00    reference energy to select bands
   IMIX   =      4    mixing-type and parameters
     AMIX     =   0.40;   BMIX     =  1.00
     AMIX_MAG =   1.60;   BMIX_MAG =  1.00
     AMIN     =   0.10
     WC   =   100.;   INIMIX=   1;  MIXPRE=   1;  MAXMIX= -45

 Intra band minimization:
   WEIMIN = 0.0010     energy-eigenvalue tresh-hold
   EBREAK =  0.74E-07  absolut break condition
   DEPER  =   0.30     relativ break condition  

   TIME   =   0.40     timestep for ELM

  volume/ion in A,a.u.               =      71.34       481.42
  Fermi-wavevector in a.u.,A,eV,Ry     =   0.763974  1.443701  7.941124  0.583656
  Thomas-Fermi vector in A             =   1.863774
 
 Write flags
   LWAVE        =      F    write WAVECAR
   LDOWNSAMPLE  =      F    k-point downsampling of WAVECAR
   LCHARG       =      F    write CHGCAR
   LVTOT        =      F    write LOCPOT, total local potential
   LVHAR        =      F    write LOCPOT, Hartree potential only
   LELF         =      F    write electronic localiz. function (ELF)
   LORBIT       =      0    0 simple, 1 ext, 2 COOP (PROOUT), +10 PAW based schemes


 Dipole corrections
   LMONO  =      F    monopole corrections only (constant potential shift)
   LDIPOL =      F    correct potential (dipole corrections)
   IDIPOL =      0    1-x, 2-y, 3-z, 4-all directions 
   EPSILON=  1.0000000 bulk dielectric constant

 LDA+U is selected, type is set to LDAUTYPE =  2
   angular momentum for each species LDAUL =     2   -1
   U (eV)           for each species LDAUU =   4.5  0.0
   J (eV)           for each species LDAUJ =   0.9  0.0
 Exchange correlation treatment:
   GGA     =    --    GGA type
   LEXCH   =     8    internal setting for exchange type
   LIBXC   =     F    Libxc                    
   VOSKOWN =     0    Vosko Wilk Nusair interpolation
   LHFCALC =     F    Hartree Fock is set to
   LHFONE  =     F    Hartree Fock one center treatment
   AEXX    =    0.0000 exact exchange contribution

 Linear response parameters
   LEPSILON=     F    determine dielectric tensor
   LRPA    =     F    only Hartree local field effects (RPA)
   LNABLA  =     F    use nabla operator in PAW spheres
   LVEL    =     F    velocity operator in full k-point grid
   CSHIFT  =0.1000    complex shift for real part using Kramers Kronig
   OMEGAMAX=  -1.0    maximum frequency
   DEG_THRESHOLD= 0.2000000E-02 threshold for treating states as degnerate
   RTIME   =   -0.100 relaxation time in fs
  (WPLASMAI=    0.000 imaginary part of plasma frequency in eV, 0.658/RTIME)
   DFIELD  = 0.0000000 0.0000000 0.0000000 field for delta impulse in time
 
  Optional k-point grid parameters
   LKPOINTS_OPT  =     F    use optional k-point grid
   KPOINTS_OPT_MODE=     1    mode for optional k-point grid
 
 Orbital magnetization related:
   ORBITALMAG=     F  switch on orbital magnetization
   LCHIMAG   =     F  perturbation theory with respect to B field
   DQ        =  0.001000  dq finite difference perturbation B field
   LLRAUG    =     F  two centre corrections for induced B field
   LBONE     =     F  B-component reconstruction in AE one-centre
   LVGVCALC  =     T  calculate vGv susceptibility
   LVGVAPPL  =     F  apply vGv susceptibility instead of pGv for G=0

 Random number generation:
   RANDOM_GENERATOR = DEFAULT
   PCG_SEED         = not used


--------------------------------------------------------------------------------------------------------


 conjugate gradient relaxation of ions
 charge density and potential will be updated during run
 spin polarized calculation
 Variant of blocked Davidson
 Davidson routine will perform the subspace rotation
 perform sub-space diagonalisation
    after iterative eigenvector-optimisation
 modified Broyden-mixing scheme, WC =      100.0
 initial mixing is a Kerker type mixing with AMIX =  0.4000 and BMIX =      1.0000
 Hartree-type preconditioning will be used
 using additional bands             5
 reciprocal scheme for non local part
 use partial core corrections
 calculate Harris-corrections to forces 
   (improved forces if not selfconsistent)
 use gradient corrections 
 use of overlap-Matrix (Vanderbilt PP)
 Gauss-broadening in eV      SIGMA  =   0.05


--------------------------------------------------------------------------------------------------------


  energy-cutoff  :      520.00
  volume of cell :      570.71
      direct lattice vectors                 reciprocal lattice vectors
     6.094107514  0.000000000  0.000000000     0.164092937  0.094739160 -0.000000000
    -3.047053752  5.277648666  0.000000000     0.000000000  0.189478319  0.000000000
     0.000000000  0.000000000 17.744602195     0.000000000 -0.000000000  0.056355166

  length of vectors
     6.094107514  6.094104693 17.744602195     0.189478232  0.189478319  0.056355166


 
 k-points in units of 2pi/SCALE and weight: Automatic mesh                          
   0.00000000  0.00000000  0.00000000       0.002
   0.00683721  0.00394746  0.00000000       0.010
   0.01367441  0.00789493  0.00000000       0.010
   0.02051162  0.01184239  0.00000000       0.010
   0.02734882  0.01578986  0.00000000       0.010
   0.03418603  0.01973732  0.00000000       0.010
   0.04102323  0.02368479  0.00000000       0.010
   0.04786044  0.02763225  0.00000000       0.010
   0.05469765  0.03157972  0.00000000       0.010
   0.06153485  0.03552718  0.00000000       0.010
   0.06837206  0.03947465  0.00000000       0.010
   0.07520926  0.04342211  0.00000000       0.010
   0.08204647  0.04736958  0.00000000       0.005
   0.00683721  0.01184239  0.00000000       0.010
   0.01367441  0.01578986  0.00000000       0.010
  -0.01367441  0.01578986  0.00000000       0.010
   0.02051162  0.01973732  0.00000000       0.010
  -0.02051162  0.01973732  0.00000000       0.010
   0.02734882  0.02368479  0.00000000       0.010
  -0.02734882  0.02368479  0.00000000       0.010
   0.03418603  0.02763225  0.00000000       0.010
  -0.03418603  0.02763225  0.00000000       0.010
   0.04102323  0.03157972  0.00000000       0.010
  -0.04102323  0.03157972  0.00000000       0.010
   0.04786044  0.03552718  0.00000000       0.010
  -0.04786044  0.03552718  0.00000000       0.010
   0.05469765  0.03947465  0.00000000       0.010
  -0.05469765  0.03947465  0.00000000       0.010
   0.06153485  0.04342211  0.00000000       0.010
  -0.06153485  0.04342211  0.00000000       0.010
   0.06837206  0.04736958  0.00000000       0.010
  -0.06837206  0.04736958  0.00000000       0.010
   0.07520926  0.05131704  0.00000000       0.010
  -0.07520926  0.05131704  0.00000000       0.010
   0.01367441  0.02368479  0.00000000       0.010
   0.02051162  0.02763225  0.00000000       0.010
  -0.02051162  0.02763225  0.00000000       0.010
   0.02734882  0.03157972  0.00000000       0.010
  -0.02734882  0.03157972  0.00000000       0.010
   0.03418603  0.03552718  0.00000000       0.010
  -0.03418603  0.03552718  0.00000000       0.010
   0.04102323  0.03947465  0.00000000       0.010
  -0.04102323  0.03947465  0.00000000       0.010
   0.04786044  0.04342211  0.00000000       0.010
  -0.04786044  0.04342211  0.00000000       0.010
   0.05469765  0.04736958  0.00000000       0.010
  -0.05469765  0.04736958  0.00000000       0.010
   0.06153485  0.05131704  0.00000000       0.010
  -0.06153485  0.05131704  0.00000000       0.010
   0.06837206  0.05526451  0.00000000       0.010
  -0.06837206  0.05526451  0.00000000       0.010
   0.07520926  0.05921197  0.00000000       0.010
   0.02051162  0.03552718  0.00000000       0.010
   0.02734882  0.03947465  0.00000000       0.010
  -0.02734882  0.03947465  0.00000000       0.010
   0.03418603  0.04342211  0.00000000       0.010
  -0.03418603  0.04342211  0.00000000       0.010
   0.04102323  0.04736958  0.00000000       0.010
  -0.04102323  0.04736958  0.00000000       0.010
   0.04786044  0.05131704  0.00000000       0.010
  -0.04786044  0.05131704  0.00000000       0.010
   0.05469765  0.05526451  0.00000000       0.010
  -0.05469765  0.05526451  0.00000000       0.010
   0.06153485  0.05921197  0.00000000       0.010
  -0.06153485  0.05921197  0.00000000       0.010
   0.06837206  0.06315944  0.00000000       0.010
  -0.06837206 -0.12631888  0.00000000       0.010
   0.02734882  0.04736958  0.00000000       0.010
   0.03418603  0.05131704  0.00000000       0.010
  -0.03418603  0.05131704  0.00000000       0.010
   0.04102323  0.05526451  0.00000000       0.010
  -0.04102323  0.05526451  0.00000000       0.010
   0.04786044  0.05921197  0.00000000       0.010
  -0.04786044  0.05921197  0.00000000       0.010
   0.05469765  0.06315944  0.00000000       0.010
  -0.05469765  0.06315944  0.00000000       0.010
   0.06153485  0.06710690  0.00000000       0.010
  -0.06153485 -0.12237141  0.00000000       0.010
   0.06837206  0.07105437  0.00000000       0.010
   0.03418603  0.05921197  0.00000000       0.010
   0.04102323  0.06315944  0.00000000       0.010
  -0.04102323  0.06315944  0.00000000       0.010
   0.04786044  0.06710690  0.00000000       0.010
  -0.04786044  0.06710690  0.00000000       0.010
   0.05469765  0.07105437  0.00000000       0.010
  -0.05469765 -0.11842395  0.00000000       0.010
   0.06153485  0.07500183  0.00000000       0.010
  -0.06153485 -0.11447648  0.00000000       0.010
   0.04102323  0.07105437  0.00000000       0.010
   0.04786044  0.07500183  0.00000000       0.010
  -0.04786044 -0.11447648  0.00000000       0.010
   0.05469765  0.07894930  0.00000000       0.010
  -0.05469765 -0.11052902  0.00000000       0.010
   0.06153485  0.08289676  0.00000000       0.010
   0.04786044  0.08289676  0.00000000       0.010
   0.05469765  0.08684423  0.00000000       0.010
  -0.05469765 -0.10263409  0.00000000       0.010
   0.05469765  0.09473916  0.00000000       0.003
 
 k-points in reciprocal lattice and weights: Automatic mesh                          
   0.00000000  0.00000000  0.00000000       0.002
   0.04166667  0.00000000  0.00000000       0.010
   0.08333333  0.00000000  0.00000000       0.010
   0.12500000  0.00000000  0.00000000       0.010
   0.16666667  0.00000000  0.00000000       0.010
   0.20833333  0.00000000  0.00000000       0.010
   0.25000000  0.00000000  0.00000000       0.010
   0.29166667  0.00000000  0.00000000       0.010
   0.33333333  0.00000000  0.00000000       0.010
   0.37500000  0.00000000  0.00000000       0.010
   0.41666667  0.00000000  0.00000000       0.010
   0.45833333  0.00000000  0.00000000       0.010
   0.50000000  0.00000000  0.00000000       0.005
   0.04166667  0.04166667  0.00000000       0.010
   0.08333333  0.04166667  0.00000000       0.010
  -0.08333333  0.12500000  0.00000000       0.010
   0.12500000  0.04166667  0.00000000       0.010
  -0.12500000  0.16666667  0.00000000       0.010
   0.16666667  0.04166667  0.00000000       0.010
  -0.16666667  0.20833333  0.00000000       0.010
   0.20833333  0.04166667  0.00000000       0.010
  -0.20833333  0.25000000  0.00000000       0.010
   0.25000000  0.04166667  0.00000000       0.010
  -0.25000000  0.29166667  0.00000000       0.010
   0.29166667  0.04166667  0.00000000       0.010
  -0.29166667  0.33333333  0.00000000       0.010
   0.33333333  0.04166667  0.00000000       0.010
  -0.33333333  0.37500000  0.00000000       0.010
   0.37500000  0.04166667  0.00000000       0.010
  -0.37500000  0.41666667  0.00000000       0.010
   0.41666667  0.04166667  0.00000000       0.010
  -0.41666667  0.45833333  0.00000000       0.010
   0.45833333  0.04166667  0.00000000       0.010
  -0.45833333  0.50000000  0.00000000       0.010
   0.08333333  0.08333333  0.00000000       0.010
   0.12500000  0.08333333  0.00000000       0.010
  -0.12500000  0.20833333  0.00000000       0.010
   0.16666667  0.08333333  0.00000000       0.010
  -0.16666667  0.25000000  0.00000000       0.010
   0.20833333  0.08333333  0.00000000       0.010
  -0.20833333  0.29166667  0.00000000       0.010
   0.25000000  0.08333333  0.00000000       0.010
  -0.25000000  0.33333333  0.00000000       0.010
   0.29166667  0.08333333  0.00000000       0.010
  -0.29166667  0.37500000  0.00000000       0.010
   0.33333333  0.08333333  0.00000000       0.010
  -0.33333333  0.41666667  0.00000000       0.010
   0.37500000  0.08333333  0.00000000       0.010
  -0.37500000  0.45833333  0.00000000       0.010
   0.41666667  0.08333333  0.00000000       0.010
  -0.41666667  0.50000000  0.00000000       0.010
   0.45833333  0.08333333  0.00000000       0.010
   0.12500000  0.12500000  0.00000000       0.010
   0.16666667  0.12500000  0.00000000       0.010
  -0.16666667  0.29166667  0.00000000       0.010
   0.20833333  0.12500000  0.00000000       0.010
  -0.20833333  0.33333333  0.00000000       0.010
   0.25000000  0.12500000  0.00000000       0.010
  -0.25000000  0.37500000  0.00000000       0.010
   0.29166667  0.12500000  0.00000000       0.010
  -0.29166667  0.41666667  0.00000000       0.010
   0.33333333  0.12500000  0.00000000       0.010
  -0.33333333  0.45833333  0.00000000       0.010
   0.37500000  0.12500000  0.00000000       0.010
  -0.37500000  0.50000000  0.00000000       0.010
   0.41666667  0.12500000  0.00000000       0.010
  -0.41666667 -0.45833333  0.00000000       0.010
   0.16666667  0.16666667  0.00000000       0.010
   0.20833333  0.16666667  0.00000000       0.010
  -0.20833333  0.37500000  0.00000000       0.010
   0.25000000  0.16666667  0.00000000       0.010
  -0.25000000  0.41666667  0.00000000       0.010
   0.29166667  0.16666667  0.00000000       0.010
  -0.29166667  0.45833333  0.00000000       0.010
   0.33333333  0.16666667  0.00000000       0.010
  -0.33333333  0.50000000  0.00000000       0.010
   0.37500000  0.16666667  0.00000000       0.010
  -0.37500000 -0.45833333  0.00000000       0.010
   0.41666667  0.16666667  0.00000000       0.010
   0.20833333  0.20833333  0.00000000       0.010
   0.25000000  0.20833333  0.00000000       0.010
  -0.25000000  0.45833333  0.00000000       0.010
   0.29166667  0.20833333  0.00000000       0.010
  -0.29166667  0.50000000  0.00000000       0.010
   0.33333333  0.20833333  0.00000000       0.010
  -0.33333333 -0.45833333  0.00000000       0.010
   0.37500000  0.20833333  0.00000000       0.010
  -0.37500000 -0.41666667  0.00000000       0.010
   0.25000000  0.25000000  0.00000000       0.010
   0.29166667  0.25000000  0.00000000       0.010
  -0.29166667 -0.45833333  0.00000000       0.010
   0.33333333  0.25000000  0.00000000       0.010
  -0.33333333 -0.41666667  0.00000000       0.010
   0.37500000  0.25000000  0.00000000       0.010
   0.29166667  0.29166667  0.00000000       0.010
   0.33333333  0.29166667  0.00000000       0.010
  -0.33333333 -0.37500000  0.00000000       0.010
   0.33333333  0.33333333  0.00000000       0.003
 
 position of ions in fractional coordinates (direct lattice) 
   0.00000091  0.99999936  0.36275271
   0.66666586  0.33333388  0.36255376
   0.97762688  0.66654889  0.43980112
   0.33345086  0.31107835  0.43980021
   0.68891971  0.02237600  0.43980063
   0.97771937  0.31093941  0.28552110
   0.68905976  0.66678410  0.28552200
   0.33321667  0.02228000  0.28551972
 
 position of ions in cartesian coordinates  (Angst):
  -3.04704623  5.27764530  6.43690260
   3.04704721  1.75921909  6.43337218
   3.92675304  3.51781088  7.80409601
   1.08421297  1.64176223  7.80407978
   4.13016990  0.11809267  7.80408715
   5.01087788  1.64102894  5.06645832
   2.16747729  3.51905221  5.06647434
   1.96276985  0.11758601  5.06643385
 


--------------------------------------------------------------------------------------------------------


 k-point   1 :   0.0000 0.0000 0.0000  plane waves:   15401
 k-point   2 :   0.0417 0.0000 0.0000  plane waves:   15399
 k-point   3 :   0.0833 0.0000 0.0000  plane waves:   15393
 k-point   4 :   0.1250 0.0000 0.0000  plane waves:   15365
 k-point   5 :   0.1667 0.0000 0.0000  plane waves:   15369
 k-point   6 :   0.2083 0.0000 0.0000  plane waves:   15348
 k-point   7 :   0.2500 0.0000 0.0000  plane waves:   15366
 k-point   8 :   0.2917 0.0000 0.0000  plane waves:   15352
 k-point   9 :   0.3333 0.0000 0.0000  plane waves:   15350
 k-point  10 :   0.3750 0.0000 0.0000  plane waves:   15340
 k-point  11 :   0.4167 0.0000 0.0000  plane waves:   15346
 k-point  12 :   0.4583 0.0000 0.0000  plane waves:   15352
 k-point  13 :   0.5000 0.0000 0.0000  plane waves:   15332
 k-point  14 :   0.0417 0.0417 0.0000  plane waves:   15395
 k-point  15 :   0.0833 0.0417 0.0000  plane waves:   15392
 k-point  16 :  -0.0833 0.1250 0.0000  plane waves:   15392
 k-point  17 :   0.1250 0.0417 0.0000  plane waves:   15384
 k-point  18 :  -0.1250 0.1667 0.0000  plane waves:   15384
 k-point  19 :   0.1667 0.0417 0.0000  plane waves:   15370
 k-point  20 :  -0.1667 0.2083 0.0000  plane waves:   15370
 k-point  21 :   0.2083 0.0417 0.0000  plane waves:   15366
 k-point  22 :  -0.2083 0.2500 0.0000  plane waves:   15366
 k-point  23 :   0.2500 0.0417 0.0000  plane waves:   15355
 k-point  24 :  -0.2500 0.2917 0.0000  plane waves:   15355
 k-point  25 :   0.2917 0.0417 0.0000  plane waves:   15356
 k-point  26 :  -0.2917 0.3333 0.0000  plane waves:   15356
 k-point  27 :   0.3333 0.0417 0.0000  plane waves:   15371
 k-point  28 :  -0.3333 0.3750 0.0000  plane waves:   15371
 k-point  29 :   0.3750 0.0417 0.0000  plane waves:   15353
 k-point  30 :  -0.3750 0.4167 0.0000  plane waves:   15353
 k-point  31 :   0.4167 0.0417 0.0000  plane waves:   15360
 k-point  32 :  -0.4167 0.4583 0.0000  plane waves:   15360
 k-point  33 :   0.4583 0.0417 0.0000  plane waves:   15345
 k-point  34 :  -0.4583 0.5000 0.0000  plane waves:   15345
 k-point  35 :   0.0833 0.0833 0.0000  plane waves:   15377
 k-point  36 :   0.1250 0.0833 0.0000  plane waves:   15378
 k-point  37 :  -0.1250 0.2083 0.0000  plane waves:   15378
 k-point  38 :   0.1667 0.0833 0.0000  plane waves:   15368
 k-point  39 :  -0.1667 0.2500 0.0000  plane waves:   15368
 k-point  40 :   0.2083 0.0833 0.0000  plane waves:   15360
 k-point  41 :  -0.2083 0.2917 0.0000  plane waves:   15360
 k-point  42 :   0.2500 0.0833 0.0000  plane waves:   15350
 k-point  43 :  -0.2500 0.3333 0.0000  plane waves:   15350
 k-point  44 :   0.2917 0.0833 0.0000  plane waves:   15363
 k-point  45 :  -0.2917 0.3750 0.0000  plane waves:   15363
 k-point  46 :   0.3333 0.0833 0.0000  plane waves:   15357
 k-point  47 :  -0.3333 0.4167 0.0000  plane waves:   15357
 k-point  48 :   0.3750 0.0833 0.0000  plane waves:   15365
 k-point  49 :  -0.3750 0.4583 0.0000  plane waves:   15365
 k-point  50 :   0.4167 0.0833 0.0000  plane waves:   15364
 k-point  51 :  -0.4167 0.5000 0.0000  plane waves:   15364
 k-point  52 :   0.4583 0.0833 0.0000  plane waves:   15344
 k-point  53 :   0.1250 0.1250 0.0000  plane waves:   15389
 k-point  54 :   0.1667 0.1250 0.0000  plane waves:   15384
 k-point  55 :  -0.1667 0.2917 0.0000  plane waves:   15384
 k-point  56 :   0.2083 0.1250 0.0000  plane waves:   15362
 k-point  57 :  -0.2083 0.3333 0.0000  plane waves:   15362
 k-point  58 :   0.2500 0.1250 0.0000  plane waves:   15356
 k-point  59 :  -0.2500 0.3750 0.0000  plane waves:   15356
 k-point  60 :   0.2917 0.1250 0.0000  plane waves:   15340
 k-point  61 :  -0.2917 0.4167 0.0000  plane waves:   15340
 k-point  62 :   0.3333 0.1250 0.0000  plane waves:   15358
 k-point  63 :  -0.3333 0.4583 0.0000  plane waves:   15358
 k-point  64 :   0.3750 0.1250 0.0000  plane waves:   15368
 k-point  65 :  -0.3750 0.5000 0.0000  plane waves:   15368
 k-point  66 :   0.4167 0.1250 0.0000  plane waves:   15354
 k-point  67 :  -0.4167-0.4583 0.0000  plane waves:   15354
 k-point  68 :   0.1667 0.1667 0.0000  plane waves:   15375
 k-point  69 :   0.2083 0.1667 0.0000  plane waves:   15362
 k-point  70 :  -0.2083 0.3750 0.0000  plane waves:   15362
 k-point  71 :   0.2500 0.1667 0.0000  plane waves:   15345
 k-point  72 :  -0.2500 0.4167 0.0000  plane waves:   15345
 k-point  73 :   0.2917 0.1667 0.0000  plane waves:   15357
 k-point  74 :  -0.2917 0.4583 0.0000  plane waves:   15357
 k-point  75 :   0.3333 0.1667 0.0000  plane waves:   15358
 k-point  76 :  -0.3333 0.5000 0.0000  plane waves:   15358
 k-point  77 :   0.3750 0.1667 0.0000  plane waves:   15368
 k-point  78 :  -0.3750-0.4583 0.0000  plane waves:   15368
 k-point  79 :   0.4167 0.1667 0.0000  plane waves:   15362
 k-point  80 :   0.2083 0.2083 0.0000  plane waves:   15379
 k-point  81 :   0.2500 0.2083 0.0000  plane waves:   15365
 k-point  82 :  -0.2500 0.4583 0.0000  plane waves:   15365
 k-point  83 :   0.2917 0.2083 0.0000  plane waves:   15364
 k-point  84 :  -0.2917 0.5000 0.0000  plane waves:   15364
 k-point  85 :   0.3333 0.2083 0.0000  plane waves:   15363
 k-point  86 :  -0.3333-0.4583 0.0000  plane waves:   15363
 k-point  87 :   0.3750 0.2083 0.0000  plane waves:   15369
 k-point  88 :  -0.3750-0.4167 0.0000  plane waves:   15369
 k-point  89 :   0.2500 0.2500 0.0000  plane waves:   15361
 k-point  90 :   0.2917 0.2500 0.0000  plane waves:   15361
 k-point  91 :  -0.2917-0.4583 0.0000  plane waves:   15361
 k-point  92 :   0.3333 0.2500 0.0000  plane waves:   15372
 k-point  93 :  -0.3333-0.4167 0.0000  plane waves:   15372
 k-point  94 :   0.3750 0.2500 0.0000  plane waves:   15380
 k-point  95 :   0.2917 0.2917 0.0000  plane waves:   15373
 k-point  96 :   0.3333 0.2917 0.0000  plane waves:   15358
 k-point  97 :  -0.3333-0.3750 0.0000  plane waves:   15358
 k-point  98 :   0.3333 0.3333 0.0000  plane waves:   15375

 maximum and minimum number of plane-waves per node :     15401    15332

 maximum number of plane-waves:     15401
 maximum index in each direction: 
   IXMAX=   11   IYMAX=   11   IZMAX=   32
   IXMIN=  -11   IYMIN=  -11   IZMIN=  -32


 serial   3D FFT for wavefunctions
 parallel 3D FFT for charge:
    minimum data exchange during FFTs selected (reduces bandwidth)


 total amount of memory used by VASP MPI-rank0  2439857. kBytes
=======================================================================

   base      :      30000. kBytes
   nonl-proj :     436649. kBytes
   fftplans  :      88392. kBytes
   grid      :     233496. kBytes
   one-center:        248. kBytes
   wavefun   :    1651072. kBytes
 
     INWAV:  cpu time      0.0001: real time      0.0002
 Broyden mixing: mesh for mixing (old mesh)
   NGX = 23   NGY = 23   NGZ = 65
  (NGX  = 96   NGY  = 96   NGZ  =280)
  gives a total of  34385 points

 initial charge density was supplied:
 charge density of overlapping atoms calculated
 number of electron      58.0000000 magnetization       0.0000000
 keeping initial charge density in first step


--------------------------------------------------------------------------------------------------------


 Maximum index for augmentation-charges         19604 (set IRDMAX)


--------------------------------------------------------------------------------------------------------


 First call to EWALD:  gamma=   0.214
 Maximum number of real-space cells 4x 4x 2
 Maximum number of reciprocal cells 2x 2x 5

    FEWALD:  cpu time      0.0009: real time      0.0009


--------------------------------------- Ionic step        1  -------------------------------------------




--------------------------------------- Iteration      1(   1)  ---------------------------------------


    POTLOK:  cpu time      0.0422: real time      0.0448
    SETDIJ:  cpu time      0.0300: real time      0.0300
     EDDAV:  cpu time      6.0192: real time      6.0312
       DOS:  cpu time      0.0043: real time      0.0043
    --------------------------------------------
      LOOP:  cpu time      6.0956: real time      6.1103

 eigenvalue-minimisations  : 13328
 total energy-change (2. order) : 0.5800070E+03  (-0.2001777E+04)
 number of electron      58.0000000 magnetization       0.0000000
 augmentation part       58.0000000 magnetization       0.0000000

 Free energy of the ion-electron system (eV)
  ---------------------------------------------------
  alpha Z        PSCENC =        35.95711006
  Ewald energy   TEWEN  =      5242.57505485
  -Hartree energ DENC   =     -8563.66810145
  -exchange      EXHF   =         0.00000000
  -V(xc)+E(xc)   XCENC  =       134.67746610
  PAW double counting   =      3052.26160663    -3045.71919405
  entropy T*S    EENTRO =        -0.00885541
  eigenvalues    EBANDS =        76.96521586
  atomic energy  EATOM  =      3646.96668234
  Solvation  Ediel_sol  =         0.00000000
  ---------------------------------------------------
  free energy    TOTEN  =       580.00698492 eV

  energy without entropy =      580.01584033  energy(sigma->0) =      580.01141262


--------------------------------------------------------------------------------------------------------




--------------------------------------- Iteration      1(   2)  ---------------------------------------


     EDDAV:  cpu time      7.9220: real time      7.9379
       DOS:  cpu time      0.0037: real time      0.0037
    --------------------------------------------
      LOOP:  cpu time      7.9257: real time      7.9416

 eigenvalue-minimisations  : 19908
 total energy-change (2. order) :-0.4911380E+03  (-0.4860285E+03)
 number of electron      58.0000000 magnetization       0.0000000
 augmentation part       58.0000000 magnetization       0.0000000

 Free energy of the ion-electron system (eV)
  ---------------------------------------------------
  alpha Z        PSCENC =        35.95711006
  Ewald energy   TEWEN  =      5242.57505485
  -Hartree energ DENC   =     -8563.66810145
  -exchange      EXHF   =         0.00000000
  -V(xc)+E(xc)   XCENC  =       134.67746610
  PAW double counting   =      3052.26160663    -3045.71919405
  entropy T*S    EENTRO =        -0.00162934
  eigenvalues    EBANDS =      -414.17996771
  atomic energy  EATOM  =      3646.96668234
  Solvation  Ediel_sol  =         0.00000000
  ---------------------------------------------------
  free energy    TOTEN  =        88.86902742 eV

  energy without entropy =       88.87065676  energy(sigma->0) =       88.86984209


--------------------------------------------------------------------------------------------------------




--------------------------------------- Iteration      1(   3)  ---------------------------------------


     EDDAV:  cpu time      6.5972: real time      6.6106
       DOS:  cpu time      0.0023: real time      0.0023
    --------------------------------------------
      LOOP:  cpu time      6.5995: real time      6.6129

 eigenvalue-minimisations  : 15468
 total energy-change (2. order) :-0.1225365E+03  (-0.1219996E+03)
 number of electron      58.0000000 magnetization       0.0000000
 augmentation part       58.0000000 magnetization       0.0000000

 Free energy of the ion-electron system (eV)
  ---------------------------------------------------
  alpha Z        PSCENC =        35.95711006
  Ewald energy   TEWEN  =      5242.57505485
  -Hartree energ DENC   =     -8563.66810145
  -exchange      EXHF   =         0.00000000
  -V(xc)+E(xc)   XCENC  =       134.67746610
  PAW double counting   =      3052.26160663    -3045.71919405
  entropy T*S    EENTRO =        -0.00000000
  eigenvalues    EBANDS =      -536.71814421
  atomic energy  EATOM  =      3646.96668234
  Solvation  Ediel_sol  =         0.00000000
  ---------------------------------------------------
  free energy    TOTEN  =       -33.66751975 eV

  energy without entropy =      -33.66751975  energy(sigma->0) =      -33.66751975


--------------------------------------------------------------------------------------------------------




--------------------------------------- Iteration      1(   4)  ---------------------------------------


     EDDAV:  cpu time      7.4482: real time      7.4639
       DOS:  cpu time      0.0023: real time      0.0023
    --------------------------------------------
      LOOP:  cpu time      7.4505: real time      7.4661

 eigenvalue-minimisations  : 18296
 total energy-change (2. order) :-0.6662424E+01  (-0.6657107E+01)
 number of electron      58.0000000 magnetization       0.0000000
 augmentation part       58.0000000 magnetization       0.0000000

 Free energy of the ion-electron system (eV)
  ---------------------------------------------------
  alpha Z        PSCENC =        35.95711006
  Ewald energy   TEWEN  =      5242.57505485
  -Hartree energ DENC   =     -8563.66810145
  -exchange      EXHF   =         0.00000000
  -V(xc)+E(xc)   XCENC  =       134.67746610
  PAW double counting   =      3052.26160663    -3045.71919405
  entropy T*S    EENTRO =        -0.00000000
  eigenvalues    EBANDS =      -543.38056810
  atomic energy  EATOM  =      3646.96668234
  Solvation  Ediel_sol  =         0.00000000
  ---------------------------------------------------
  free energy    TOTEN  =       -40.32994363 eV

  energy without entropy =      -40.32994363  energy(sigma->0) =      -40.32994363


--------------------------------------------------------------------------------------------------------




--------------------------------------- Iteration      1(   5)  ---------------------------------------


     EDDAV:  cpu time      7.7282: real time      7.7440
       DOS:  cpu time      0.0024: real time      0.0024
    CHARGE:  cpu time      0.7454: real time      0.7468
    MIXING:  cpu time      0.0228: real time      0.0229
    --------------------------------------------
      LOOP:  cpu time      8.4989: real time      8.5161

 eigenvalue-minimisations  : 19004
 total energy-change (2. order) :-0.1614941E+00  (-0.1614465E+00)
 number of electron      58.0000004 magnetization       0.0000000
 augmentation part        0.7779790 magnetization       0.0000374

 Broyden mixing:
  rms(total) = 0.23340E+01    rms(broyden)= 0.23340E+01
  rms(prec ) = 0.25432E+01
  weight for this iteration     100.00

 Free energy of the ion-electron system (eV)
  ---------------------------------------------------
  alpha Z        PSCENC =        35.95711006
  Ewald energy   TEWEN  =      5242.57505485
  -Hartree energ DENC   =     -8563.66810145
  -exchange      EXHF   =         0.00000000
  -V(xc)+E(xc)   XCENC  =       134.67746610
  PAW double counting   =      3052.26160663    -3045.71919405
  entropy T*S    EENTRO =        -0.00000000
  eigenvalues    EBANDS =      -543.54206223
  atomic energy  EATOM  =      3646.96668234
  Solvation  Ediel_sol  =         0.00000000
  ---------------------------------------------------
  free energy    TOTEN  =       -40.49143776 eV

  energy without entropy =      -40.49143776  energy(sigma->0) =      -40.49143776


--------------------------------------------------------------------------------------------------------




--------------------------------------- Iteration      1(   6)  ---------------------------------------


    POTLOK:  cpu time      0.0241: real time      0.0244
    SETDIJ:  cpu time      0.0322: real time      0.0323
     EDDAV:  cpu time      7.9620: real time      7.9781
       DOS:  cpu time      0.0036: real time      0.0036
    CHARGE:  cpu time      0.7393: real time      0.7409
    MIXING:  cpu time      0.0235: real time      0.0236
    --------------------------------------------
      LOOP:  cpu time      8.7848: real time      8.8028

 eigenvalue-minimisations  : 20284
 total energy-change (2. order) : 0.1044255E+02  (-0.5568651E+01)
 number of electron      58.0000005 magnetization       0.0000000
 augmentation part        3.7239181 magnetization      -0.0043496

 Broyden mixing:
  rms(total) = 0.39334E+01    rms(broyden)= 0.39334E+01
  rms(prec ) = 0.39691E+01
  weight for this iteration     100.00

 eigenvalues of (default mixing * dielectric matrix)
  average eigenvalue GAMMA=   0.1180
  0.1180

 Free energy of the ion-electron system (eV)
  ---------------------------------------------------
  alpha Z        PSCENC =        35.95711006
  Ewald energy   TEWEN  =      5242.57505485
  -Hartree energ DENC   =     -8506.11771710
  -exchange      EXHF   =         0.00000000
  -V(xc)+E(xc)   XCENC  =       134.37727515
  PAW double counting   =      3369.69130762    -3359.28324422
  entropy T*S    EENTRO =        -0.00000016
  eigenvalues    EBANDS =      -594.21535475
  atomic energy  EATOM  =      3646.96668234
  Solvation  Ediel_sol  =         0.00000000
  ---------------------------------------------------
  free energy    TOTEN  =       -30.04888621 eV

  energy without entropy =      -30.04888605  energy(sigma->0) =      -30.04888613


--------------------------------------------------------------------------------------------------------




--------------------------------------- Iteration      1(   7)  ---------------------------------------


    POTLOK:  cpu time      0.0245: real time      0.0248
    SETDIJ:  cpu time      0.0324: real time      0.0325
     EDDAV:  cpu time      6.9809: real time      6.9973
       DOS:  cpu time      0.0028: real time      0.0028
    CHARGE:  cpu time      0.7294: real time      0.7309
    MIXING:  cpu time      0.0246: real time      0.0247
    --------------------------------------------
      LOOP:  cpu time      7.7945: real time      7.8130

 eigenvalue-minimisations  : 16872
 total energy-change (2. order) :-0.4620263E+00  (-0.1186609E+01)
 number of electron      58.0000005 magnetization       0.0000000
 augmentation part        3.0813443 magnetization       0.0011801

 Broyden mixing:
  rms(total) = 0.26920E+01    rms(broyden)= 0.26920E+01
  rms(prec ) = 0.27053E+01
  weight for this iteration     100.00

 eigenvalues of (default mixing * dielectric matrix)
  average eigenvalue GAMMA=   0.5179
  0.5179  0.5179

 Free energy of the ion-electron system (eV)
  ---------------------------------------------------
  alpha Z        PSCENC =        35.95711006
  Ewald energy   TEWEN  =      5242.57505485
  -Hartree energ DENC   =     -8512.44684978
  -exchange      EXHF   =         0.00000000
  -V(xc)+E(xc)   XCENC  =       133.67063374
  PAW double counting   =      3444.63623417    -3436.84591501
  entropy T*S    EENTRO =        -0.00000000
  eigenvalues    EBANDS =      -585.02386291
  atomic energy  EATOM  =      3646.96668234
  Solvation  Ediel_sol  =         0.00000000
  ---------------------------------------------------
  free energy    TOTEN  =       -30.51091255 eV

  energy without entropy =      -30.51091255  energy(sigma->0) =      -30.51091255


--------------------------------------------------------------------------------------------------------




--------------------------------------- Iteration      1(   8)  ---------------------------------------


    POTLOK:  cpu time      0.0228: real time      0.0231
    SETDIJ:  cpu time      0.0327: real time      0.0328
     EDDAV:  cpu time      7.1460: real time      7.1626
       DOS:  cpu time      0.0029: real time      0.0030
    CHARGE:  cpu time      0.7289: real time      0.7304
    MIXING:  cpu time      0.0257: real time      0.0258
    --------------------------------------------
      LOOP:  cpu time      7.9590: real time      7.9776

 eigenvalue-minimisations  : 17706
 total energy-change (2. order) : 0.1258787E+00  (-0.1769340E+00)
 number of electron      58.0000004 magnetization      -0.0000000
 augmentation part        2.9791561 magnetization      -0.0081353

 Broyden mixing:
  rms(total) = 0.23103E+01    rms(broyden)= 0.23103E+01
  rms(prec ) = 0.23197E+01
  weight for this iteration     100.00

 eigenvalues of (default mixing * dielectric matrix)
  average eigenvalue GAMMA=   0.9174
  0.3362  1.0074  1.4087

 Free energy of the ion-electron system (eV)
  ---------------------------------------------------
  alpha Z        PSCENC =        35.95711006
  Ewald energy   TEWEN  =      5242.57505485
  -Hartree energ DENC   =     -8502.54391639
  -exchange      EXHF   =         0.00000000
  -V(xc)+E(xc)   XCENC  =       135.13652154
  PAW double counting   =      3862.33847561    -3856.02793308
  entropy T*S    EENTRO =        -0.00000000
  eigenvalues    EBANDS =      -594.78702882
  atomic energy  EATOM  =      3646.96668234
  Solvation  Ediel_sol  =         0.00000000
  ---------------------------------------------------
  free energy    TOTEN  =       -30.38503388 eV

  energy without entropy =      -30.38503388  energy(sigma->0) =      -30.38503388


--------------------------------------------------------------------------------------------------------




--------------------------------------- Iteration      1(   9)  ---------------------------------------


    POTLOK:  cpu time      0.0245: real time      0.0249
    SETDIJ:  cpu time      0.0325: real time      0.0326
     EDDAV:  cpu time      7.2920: real time      7.3089
       DOS:  cpu time      0.0029: real time      0.0029
    CHARGE:  cpu time      0.7294: real time      0.7310
    MIXING:  cpu time      0.0256: real time      0.0257
    --------------------------------------------
      LOOP:  cpu time      8.1070: real time      8.1260

 eigenvalue-minimisations  : 17926
 total energy-change (2. order) :-0.2073416E+00  (-0.5873105E-01)
 number of electron      58.0000004 magnetization      -0.0000000
 augmentation part        3.0786415 magnetization       0.0035179

 Broyden mixing:
  rms(total) = 0.11287E+01    rms(broyden)= 0.11287E+01
  rms(prec ) = 0.11662E+01
  weight for this iteration     100.00

 eigenvalues of (default mixing * dielectric matrix)
  average eigenvalue GAMMA=   1.0044
  1.4971  1.4971  0.3584  0.6649

 Free energy of the ion-electron system (eV)
  ---------------------------------------------------
  alpha Z        PSCENC =        35.95711006
  Ewald energy   TEWEN  =      5242.57505485
  -Hartree energ DENC   =     -8489.76440095
  -exchange      EXHF   =         0.00000000
  -V(xc)+E(xc)   XCENC  =       134.63501818
  PAW double counting   =      4461.57107485    -4461.41752072
  entropy T*S    EENTRO =        -0.00000000
  eigenvalues    EBANDS =      -601.11539408
  atomic energy  EATOM  =      3646.96668234
  Solvation  Ediel_sol  =         0.00000000
  ---------------------------------------------------
  free energy    TOTEN  =       -30.59237547 eV

  energy without entropy =      -30.59237547  energy(sigma->0) =      -30.59237547


--------------------------------------------------------------------------------------------------------




--------------------------------------- Iteration      1(  10)  ---------------------------------------


    POTLOK:  cpu time      0.0224: real time      0.0227
    SETDIJ:  cpu time      0.0324: real time      0.0324
     EDDAV:  cpu time      6.0333: real time      6.0477
       DOS:  cpu time      0.0029: real time      0.0029
    CHARGE:  cpu time      0.7295: real time      0.7310
    MIXING:  cpu time      0.0266: real time      0.0266
    --------------------------------------------
      LOOP:  cpu time      6.8471: real time      6.8634

 eigenvalue-minimisations  : 13882
 total energy-change (2. order) : 0.3702474E+00  (-0.1421807E+00)
 number of electron      58.0000004 magnetization       0.0000000
 augmentation part        2.6227452 magnetization      -0.0078051

 Broyden mixing:
  rms(total) = 0.42294E+00    rms(broyden)= 0.42294E+00
  rms(prec ) = 0.42989E+00
  weight for this iteration     100.00

 eigenvalues of (default mixing * dielectric matrix)
  average eigenvalue GAMMA=   1.0033
  1.5518  1.5518  0.3572  0.8821  0.6737

 Free energy of the ion-electron system (eV)
  ---------------------------------------------------
  alpha Z        PSCENC =        35.95711006
  Ewald energy   TEWEN  =      5242.57505485
  -Hartree energ DENC   =     -8503.34770544
  -exchange      EXHF   =         0.00000000
  -V(xc)+E(xc)   XCENC  =       133.36460397
  PAW double counting   =      4345.22249359    -4346.71967616
  entropy T*S    EENTRO =        -0.00000000
  eigenvalues    EBANDS =      -584.24069125
  atomic energy  EATOM  =      3646.96668234
  Solvation  Ediel_sol  =         0.00000000
  ---------------------------------------------------
  free energy    TOTEN  =       -30.22212804 eV

  energy without entropy =      -30.22212804  energy(sigma->0) =      -30.22212804


--------------------------------------------------------------------------------------------------------




--------------------------------------- Iteration      1(  11)  ---------------------------------------


    POTLOK:  cpu time      0.0245: real time      0.0247
    SETDIJ:  cpu time      0.0324: real time      0.0325
     EDDAV:  cpu time      7.0127: real time      7.0287
       DOS:  cpu time      0.0028: real time      0.0028
    CHARGE:  cpu time      0.7248: real time      0.7262
    MIXING:  cpu time      0.0300: real time      0.0300
    --------------------------------------------
      LOOP:  cpu time      7.8272: real time      7.8450

 eigenvalue-minimisations  : 17096
 total energy-change (2. order) : 0.1478240E-01  (-0.1904376E-01)
 number of electron      58.0000004 magnetization       0.0000000
 augmentation part        2.5320952 magnetization      -0.0010050

 Broyden mixing:
  rms(total) = 0.32255E+00    rms(broyden)= 0.32254E+00
  rms(prec ) = 0.32511E+00
  weight for this iteration     100.00

 eigenvalues of (default mixing * dielectric matrix)
  average eigenvalue GAMMA=   1.0783
  2.2774  1.3116  1.3116  0.3561  0.6065  0.6065

 Free energy of the ion-electron system (eV)
  ---------------------------------------------------
  alpha Z        PSCENC =        35.95711006
  Ewald energy   TEWEN  =      5242.57505485
  -Hartree energ DENC   =     -8505.90595857
  -exchange      EXHF   =         0.00000000
  -V(xc)+E(xc)   XCENC  =       133.70388198
  PAW double counting   =      4372.40572351    -4374.71442255
  entropy T*S    EENTRO =        -0.00000000
  eigenvalues    EBANDS =      -581.19541725
  atomic energy  EATOM  =      3646.96668234
  Solvation  Ediel_sol  =         0.00000000
  ---------------------------------------------------
  free energy    TOTEN  =       -30.20734564 eV

  energy without entropy =      -30.20734564  energy(sigma->0) =      -30.20734564


--------------------------------------------------------------------------------------------------------




--------------------------------------- Iteration      1(  12)  ---------------------------------------


    POTLOK:  cpu time      0.0223: real time      0.0226
    SETDIJ:  cpu time      0.0326: real time      0.0327
     EDDAV:  cpu time      7.5466: real time      7.5633
       DOS:  cpu time      0.0029: real time      0.0029
    CHARGE:  cpu time      0.7253: real time      0.7268
    MIXING:  cpu time      0.0313: real time      0.0313
    --------------------------------------------
      LOOP:  cpu time      8.3610: real time      8.3796

 eigenvalue-minimisations  : 18970
 total energy-change (2. order) :-0.1180510E-02  (-0.7393216E-02)
 number of electron      58.0000004 magnetization       0.0000000
 augmentation part        2.6107295 magnetization       0.0001767

 Broyden mixing:
  rms(total) = 0.23815E+00    rms(broyden)= 0.23815E+00
  rms(prec ) = 0.24487E+00
  weight for this iteration     100.00

 eigenvalues of (default mixing * dielectric matrix)
  average eigenvalue GAMMA=   1.1621
  2.6253  1.6017  1.6017  0.3561  0.6894  0.6894  0.5709

 Free energy of the ion-electron system (eV)
  ---------------------------------------------------
  alpha Z        PSCENC =        35.95711006
  Ewald energy   TEWEN  =      5242.57505485
  -Hartree energ DENC   =     -8506.43979300
  -exchange      EXHF   =         0.00000000
  -V(xc)+E(xc)   XCENC  =       133.95474785
  PAW double counting   =      4425.99163491    -4428.83380006
  entropy T*S    EENTRO =        -0.00000000
  eigenvalues    EBANDS =      -580.38016309
  atomic energy  EATOM  =      3646.96668234
  Solvation  Ediel_sol  =         0.00000000
  ---------------------------------------------------
  free energy    TOTEN  =       -30.20852615 eV

  energy without entropy =      -30.20852615  energy(sigma->0) =      -30.20852615


--------------------------------------------------------------------------------------------------------




--------------------------------------- Iteration      1(  13)  ---------------------------------------


    POTLOK:  cpu time      0.0227: real time      0.0231
    SETDIJ:  cpu time      0.0327: real time      0.0327
     EDDAV:  cpu time      6.6472: real time      6.6619
       DOS:  cpu time      0.0031: real time      0.0031
    CHARGE:  cpu time      0.7256: real time      0.7270
    MIXING:  cpu time      0.0323: real time      0.0324
    --------------------------------------------
      LOOP:  cpu time      7.4635: real time      7.4803

 eigenvalue-minimisations  : 15768
 total energy-change (2. order) :-0.7682541E-03  (-0.6418976E-02)
 number of electron      58.0000004 magnetization       0.0000000
 augmentation part        2.5607789 magnetization      -0.0005909

 Broyden mixing:
  rms(total) = 0.71181E-01    rms(broyden)= 0.71180E-01
  rms(prec ) = 0.76327E-01
  weight for this iteration     100.00

 eigenvalues of (default mixing * dielectric matrix)
  average eigenvalue GAMMA=   1.1086
  1.6603  1.6603  1.6900  1.4882  0.3562  0.7133  0.7133  0.5874

 Free energy of the ion-electron system (eV)
  ---------------------------------------------------
  alpha Z        PSCENC =        35.95711006
  Ewald energy   TEWEN  =      5242.57505485
  -Hartree energ DENC   =     -8509.60579794
  -exchange      EXHF   =         0.00000000
  -V(xc)+E(xc)   XCENC  =       133.70976019
  PAW double counting   =      4407.65428599    -4410.74785846
  entropy T*S    EENTRO =        -0.00000000
  eigenvalues    EBANDS =      -576.71853143
  atomic energy  EATOM  =      3646.96668234
  Solvation  Ediel_sol  =         0.00000000
  ---------------------------------------------------
  free energy    TOTEN  =       -30.20929441 eV

  energy without entropy =      -30.20929441  energy(sigma->0) =      -30.20929441


--------------------------------------------------------------------------------------------------------




--------------------------------------- Iteration      1(  14)  ---------------------------------------


    POTLOK:  cpu time      0.0242: real time      0.0245
    SETDIJ:  cpu time      0.0325: real time      0.0325
     EDDAV:  cpu time      7.1967: real time      7.2126
       DOS:  cpu time      0.0028: real time      0.0028
    CHARGE:  cpu time      0.7232: real time      0.7246
    MIXING:  cpu time      0.0303: real time      0.0304
    --------------------------------------------
      LOOP:  cpu time      8.0097: real time      8.0274

 eigenvalue-minimisations  : 17744
 total energy-change (2. order) : 0.1224245E-02  (-0.2501770E-02)
 number of electron      58.0000004 magnetization       0.0000000
 augmentation part        2.4951895 magnetization       0.0005311

 Broyden mixing:
  rms(total) = 0.22958E-01    rms(broyden)= 0.22948E-01
  rms(prec ) = 0.24350E-01
  weight for this iteration     100.00

 eigenvalues of (default mixing * dielectric matrix)
  average eigenvalue GAMMA=   1.0929
  2.1840  1.6635  1.6635  1.0539  0.9977  0.3562  0.6632  0.6632  0.5913

 Free energy of the ion-electron system (eV)
  ---------------------------------------------------
  alpha Z        PSCENC =        35.95711006
  Ewald energy   TEWEN  =      5242.57505485
  -Hartree energ DENC   =     -8510.87095635
  -exchange      EXHF   =         0.00000000
  -V(xc)+E(xc)   XCENC  =       133.55132692
  PAW double counting   =      4381.73894306    -4384.81593545
  entropy T*S    EENTRO =        -0.00000000
  eigenvalues    EBANDS =      -575.31029560
  atomic energy  EATOM  =      3646.96668234
  Solvation  Ediel_sol  =         0.00000000
  ---------------------------------------------------
  free energy    TOTEN  =       -30.20807016 eV

  energy without entropy =      -30.20807016  energy(sigma->0) =      -30.20807016


--------------------------------------------------------------------------------------------------------




--------------------------------------- Iteration      1(  15)  ---------------------------------------


    POTLOK:  cpu time      0.0225: real time      0.0228
    SETDIJ:  cpu time      0.0322: real time      0.0322
     EDDAV:  cpu time      6.8192: real time      6.8347
       DOS:  cpu time      0.0029: real time      0.0029
    CHARGE:  cpu time      0.7251: real time      0.7265
    MIXING:  cpu time      0.0348: real time      0.0349
    --------------------------------------------
      LOOP:  cpu time      7.6367: real time      7.6540

 eigenvalue-minimisations  : 16450
 total energy-change (2. order) :-0.8491044E-03  (-0.5814277E-03)
 number of electron      58.0000004 magnetization       0.0000000
 augmentation part        2.5027385 magnetization       0.0005245

 Broyden mixing:
  rms(total) = 0.14721E-01    rms(broyden)= 0.14720E-01
  rms(prec ) = 0.15252E-01
  weight for this iteration     100.00

 eigenvalues of (default mixing * dielectric matrix)
  average eigenvalue GAMMA=   1.0487
  2.3631  1.6714  1.6714  0.9306  0.9306  0.3562  0.6978  0.6978  0.5839  0.5839

 Free energy of the ion-electron system (eV)
  ---------------------------------------------------
  alpha Z        PSCENC =        35.95711006
  Ewald energy   TEWEN  =      5242.57505485
  -Hartree energ DENC   =     -8510.50022938
  -exchange      EXHF   =         0.00000000
  -V(xc)+E(xc)   XCENC  =       133.57307130
  PAW double counting   =      4383.91576672    -4386.99750524
  entropy T*S    EENTRO =        -0.00000000
  eigenvalues    EBANDS =      -575.69886991
  atomic energy  EATOM  =      3646.96668234
  Solvation  Ediel_sol  =         0.00000000
  ---------------------------------------------------
  free energy    TOTEN  =       -30.20891927 eV

  energy without entropy =      -30.20891927  energy(sigma->0) =      -30.20891927


--------------------------------------------------------------------------------------------------------




--------------------------------------- Iteration      1(  16)  ---------------------------------------


    POTLOK:  cpu time      0.0227: real time      0.0229
    SETDIJ:  cpu time      0.0323: real time      0.0324
     EDDAV:  cpu time      7.6419: real time      7.6589
       DOS:  cpu time      0.0029: real time      0.0029
    CHARGE:  cpu time      0.7272: real time      0.7286
    MIXING:  cpu time      0.0325: real time      0.0325
    --------------------------------------------
      LOOP:  cpu time      8.4593: real time      8.4782

 eigenvalue-minimisations  : 19552
 total energy-change (2. order) :-0.2914164E-04  (-0.2567943E-04)
 number of electron      58.0000004 magnetization       0.0000000
 augmentation part        2.5062860 magnetization      -0.0000216

 Broyden mixing:
  rms(total) = 0.10309E-01    rms(broyden)= 0.10309E-01
  rms(prec ) = 0.10572E-01
  weight for this iteration     100.00

[...]
     34      -2.8353      0.00000

 k-point    95 :       0.2917    0.2917    0.0000
  band No.  band energies     occupation 
      1     -18.9362      1.00000
      2     -18.7948      1.00000
      3     -18.5171      1.00000
      4     -18.4242      1.00000
      5     -18.3626      1.00000
      6     -18.3503      1.00000
      7     -11.1173      1.00000
      8     -11.0638      1.00000
      9     -10.9449      1.00000
     10     -10.9340      1.00000
     11     -10.9209      1.00000
     12      -8.9996      1.00000
     13      -8.4678      1.00000
     14      -8.1298      1.00000
     15      -7.9673      1.00000
     16      -7.8076      1.00000
     17      -7.3050      1.00000
     18      -7.0902      1.00000
     19      -7.0655      1.00000
     20      -6.8936      1.00000
     21      -6.5439      1.00000
     22      -6.3491      1.00000
     23      -5.9704      1.00000
     24      -5.9035      1.00000
     25      -5.8358      1.00000
     26      -5.6482      1.00000
     27      -5.5360      1.00000
     28      -5.2348      1.00000
     29      -5.1415      1.00000
     30      -3.0779      0.00000
     31      -3.0377      0.00000
     32      -2.9736      0.00000
     33      -2.8974      0.00000
     34      -2.8360      0.00000

 k-point    96 :       0.3333    0.2917    0.0000
  band No.  band energies     occupation 
      1     -18.9014      1.00000
      2     -18.8274      1.00000
      3     -18.5216      1.00000
      4     -18.4176      1.00000
      5     -18.3658      1.00000
      6     -18.3530      1.00000
      7     -11.1188      1.00000
      8     -11.0638      1.00000
      9     -10.9426      1.00000
     10     -10.9333      1.00000
     11     -10.9229      1.00000
     12      -8.9836      1.00000
     13      -8.4764      1.00000
     14      -8.1219      1.00000
     15      -7.9481      1.00000
     16      -7.8396      1.00000
     17      -7.2897      1.00000
     18      -7.1049      1.00000
     19      -7.0786      1.00000
     20      -6.8824      1.00000
     21      -6.5417      1.00000
     22      -6.3546      1.00000
     23      -5.9704      1.00000
     24      -5.9154      1.00000
     25      -5.8188      1.00000
     26      -5.6529      1.00000
     27      -5.5315      1.00000
     28      -5.2378      1.00000
     29      -5.1330      1.00000
     30      -3.0760      0.00000
     31      -3.0367      0.00000
     32      -2.9747      0.00000
     33      -2.8979      0.00000
     34      -2.8346      0.00000

 k-point    97 :      -0.3333   -0.3750    0.0000
  band No.  band energies     occupation 
      1     -18.9015      1.00000
      2     -18.8274      1.00000
      3     -18.5216      1.00000
      4     -18.4176      1.00000
      5     -18.3658      1.00000
      6     -18.3530      1.00000
      7     -11.1188      1.00000
      8     -11.0638      1.00000
      9     -10.9426      1.00000
     10     -10.9332      1.00000
     11     -10.9230      1.00000
     12      -8.9836      1.00000
     13      -8.4764      1.00000
     14      -8.1219      1.00000
     15      -7.9481      1.00000
     16      -7.8395      1.00000
     17      -7.2897      1.00000
     18      -7.1048      1.00000
     19      -7.0786      1.00000
     20      -6.8824      1.00000
     21      -6.5417      1.00000
     22      -6.3546      1.00000
     23      -5.9705      1.00000
     24      -5.9153      1.00000
     25      -5.8188      1.00000
     26      -5.6529      1.00000
     27      -5.5315      1.00000
     28      -5.2378      1.00000
     29      -5.1330      1.00000
     30      -3.0760      0.00000
     31      -3.0367      0.00000
     32      -2.9747      0.00000
     33      -2.8979      0.00000
     34      -2.8346      0.00000

 k-point    98 :       0.3333    0.3333    0.0000
  band No.  band energies     occupation 
      1     -18.8676      1.00000
      2     -18.8597      1.00000
      3     -18.5242      1.00000
      4     -18.4150      1.00000
      5     -18.3655      1.00000
      6     -18.3555      1.00000
      7     -11.1194      1.00000
      8     -11.0637      1.00000
      9     -10.9378      1.00000
     10     -10.9369      1.00000
     11     -10.9237      1.00000
     12      -8.9750      1.00000
     13      -8.4816      1.00000
     14      -8.1139      1.00000
     15      -7.9393      1.00000
     16      -7.8603      1.00000
     17      -7.2832      1.00000
     18      -7.1224      1.00000
     19      -7.0722      1.00000
     20      -6.8799      1.00000
     21      -6.5349      1.00000
     22      -6.3621      1.00000
     23      -5.9514      1.00000
     24      -5.9345      1.00000
     25      -5.8118      1.00000
     26      -5.6576      1.00000
     27      -5.5307      1.00000
     28      -5.2383      1.00000
     29      -5.1285      1.00000
     30      -3.0741      0.00000
     31      -3.0361      0.00000
     32      -2.9751      0.00000
     33      -2.8989      0.00000
     34      -2.8340      0.00000


--------------------------------------------------------------------------------------------------------


 soft charge-density along one line, spin component            1
         0         1         2         3         4         5         6         7         8         9
 total charge-density along one line
 
 soft charge-density along one line, spin component            2
         0         1         2         3         4         5         6         7         8         9
 total charge-density along one line
 
 pseudopotential strength for first ion, spin component:            1
-15.934   0.016   0.000   0.000   0.000 -16.251   0.012   0.000
  0.016 -15.920  -0.000  -0.000   0.000   0.012 -16.240  -0.000
  0.000  -0.000 -15.950  -0.000  -0.000   0.000  -0.000 -16.265
  0.000  -0.000  -0.000 -15.920  -0.016   0.000  -0.000  -0.000
  0.000   0.000  -0.000  -0.016 -15.934   0.000   0.000  -0.000
-16.251   0.012   0.000   0.000   0.000 -16.549   0.008   0.000
  0.012 -16.240  -0.000  -0.000   0.000   0.008 -16.541  -0.000
  0.000  -0.000 -16.265  -0.000  -0.000   0.000  -0.000 -16.560
  0.000  -0.000  -0.000 -16.240  -0.012   0.000  -0.000  -0.000
  0.000   0.000  -0.000  -0.012 -16.251   0.000   0.000  -0.000
  0.000   0.000   0.001   0.000  -0.000   0.000   0.000   0.001
  0.000   0.000   0.001   0.000  -0.000   0.000   0.000   0.001
  0.000  -0.000   0.000  -0.000   0.001   0.000  -0.000   0.000
 -0.000  -0.000  -0.000   0.000  -0.000  -0.000  -0.000  -0.000
  0.001  -0.000  -0.000  -0.000  -0.000   0.001  -0.000  -0.000
  0.000  -0.000   0.000  -0.000   0.002   0.000  -0.000   0.000
 -0.000  -0.000  -0.000   0.000  -0.000  -0.000  -0.000  -0.000
  0.002  -0.000  -0.000  -0.000  -0.000   0.002  -0.000  -0.000
 pseudopotential strength for first ion, spin component:            2
-10.314  -0.517   0.000  -0.000   0.000 -10.668  -0.524   0.000
 -0.517 -10.694  -0.000  -0.000  -0.000  -0.524 -11.053  -0.000
  0.000  -0.000  -9.916  -0.000  -0.000   0.000  -0.000 -10.265
 -0.000  -0.000  -0.000 -10.694   0.517  -0.000  -0.000  -0.000
  0.000  -0.000  -0.000   0.517 -10.314   0.000  -0.000  -0.000
-10.668  -0.524   0.000  -0.000   0.000 -10.973  -0.535   0.000
 -0.524 -11.053  -0.000  -0.000  -0.000  -0.535 -11.365  -0.000
  0.000  -0.000 -10.265  -0.000  -0.000   0.000  -0.000 -10.560
 -0.000  -0.000  -0.000 -11.053   0.524  -0.000  -0.000  -0.000
  0.000  -0.000  -0.000   0.524 -10.668   0.000  -0.000  -0.000
  0.000   0.000   0.000   0.000  -0.000   0.000   0.000  -0.000
  0.000   0.000   0.000   0.000  -0.000   0.000   0.000  -0.000
 -0.000  -0.000   0.000  -0.000  -0.001  -0.000  -0.000   0.000
 -0.000  -0.000  -0.000   0.000  -0.000  -0.000  -0.000  -0.000
 -0.001  -0.000  -0.000  -0.000   0.000  -0.001  -0.000  -0.000
 -0.000  -0.000   0.000  -0.000  -0.002  -0.000  -0.000   0.000
 -0.000  -0.000  -0.000   0.000  -0.000  -0.000  -0.000  -0.000
 -0.002  -0.000  -0.000  -0.000   0.000  -0.002  -0.000  -0.000
 total augmentation occupancy for first ion, spin component:            1
  7.107   2.395  -0.000   0.002   0.000  -4.937  -2.338   0.000  -0.002   0.000  -0.000   0.000  -0.001  -0.000  -0.068   0.000
  2.395   8.740  -0.000   0.000   0.002  -2.338  -6.522   0.000   0.000  -0.002   0.000   0.000  -0.001   0.000   0.008  -0.000
 -0.000  -0.000   5.320   0.000  -0.000   0.000   0.000  -3.186  -0.000   0.000   0.036  -0.004   0.000   0.001  -0.000  -0.000
  0.002   0.000   0.000   8.740  -2.395  -0.002  -0.000  -0.000  -6.522   2.338   0.000   0.000  -0.008   0.000  -0.001  -0.000
  0.000   0.002  -0.000  -2.395   7.107  -0.000  -0.002   0.000   2.338  -4.937  -0.000   0.000  -0.068  -0.000   0.001   0.006
 -4.937  -2.338   0.000  -0.002  -0.000   4.010   2.412  -0.000   0.002   0.000   0.000  -0.000   0.002   0.000   0.077  -0.000
 -2.338  -6.522   0.000  -0.000  -0.002   2.412   5.642  -0.000   0.000   0.002   0.000  -0.000   0.001  -0.000  -0.010  -0.000
  0.000   0.000  -3.186  -0.000   0.000  -0.000  -0.000   2.193   0.000  -0.000  -0.042   0.006  -0.000  -0.001   0.000   0.000
 -0.002   0.000  -0.000  -6.522   2.338   0.002   0.000   0.000   5.642  -2.412  -0.000   0.000   0.010   0.000   0.001   0.000
  0.000  -0.002   0.000   2.338  -4.937   0.000   0.002  -0.000  -2.412   4.010   0.000  -0.000   0.077   0.000  -0.002  -0.008
 -0.000   0.000   0.036   0.000  -0.000   0.000   0.000  -0.042   0.000   0.000   1.543  -0.154   0.000   0.000   0.000   0.000
  0.000   0.000  -0.004   0.000   0.000  -0.000   0.000   0.006   0.000  -0.000  -0.154   0.033   0.000  -0.000  -0.000   0.000
 -0.001  -0.001   0.000  -0.008  -0.068   0.002   0.001  -0.000   0.010   0.077   0.000   0.000   0.234  -0.000   0.000  -0.021
 -0.000   0.000   0.001   0.000  -0.000   0.000  -0.000  -0.001   0.000   0.000   0.000  -0.000   0.000   0.229  -0.000  -0.000
 -0.068   0.008  -0.000  -0.001   0.001   0.077  -0.010   0.000   0.001  -0.002   0.000   0.000   0.000   0.000   0.234  -0.000
  0.000  -0.000  -0.000  -0.000   0.006  -0.000  -0.000   0.000   0.000  -0.008   0.000   0.000  -0.021  -0.000  -0.000   0.003
  0.000   0.000  -0.000  -0.000   0.000  -0.000   0.000   0.000   0.000  -0.000  -0.000   0.000  -0.000  -0.020  -0.000   0.000
  0.006   0.000   0.000  -0.000  -0.000  -0.008  -0.000  -0.000  -0.000   0.000   0.000   0.000   0.000  -0.000  -0.021   0.000
 total augmentation occupancy for first ion, spin component:            2
  6.741   2.091  -0.000   0.002   0.000  -4.375  -1.916   0.000  -0.001  -0.000  -0.000  -0.000  -0.001  -0.000  -0.027  -0.000
  2.091   8.178  -0.000   0.000   0.002  -1.916  -5.697   0.000  -0.000  -0.001  -0.000  -0.000  -0.001   0.000   0.014  -0.000
 -0.000  -0.000   5.180   0.000  -0.000   0.000   0.000  -2.943  -0.000   0.000   0.007   0.001   0.000   0.001  -0.000   0.000
  0.002   0.000   0.000   8.178  -2.091  -0.001   0.000  -0.000  -5.697   1.916   0.000  -0.000  -0.014  -0.000  -0.001  -0.000
  0.000   0.002  -0.000  -2.091   6.741   0.000  -0.001   0.000   1.916  -4.375  -0.000  -0.000  -0.027  -0.000   0.001  -0.000
 -4.375  -1.916   0.000  -0.001   0.000   2.940   1.623  -0.000   0.001   0.000   0.000   0.000   0.001   0.000   0.016   0.000
 -1.916  -5.697   0.000   0.000  -0.001   1.623   4.059  -0.000   0.000   0.001   0.000   0.000   0.001   0.000  -0.010   0.000
  0.000   0.000  -2.943  -0.000   0.000  -0.000  -0.000   1.728   0.000  -0.000  -0.003  -0.001  -0.000  -0.000   0.000  -0.000
 -0.001  -0.000  -0.000  -5.697   1.916   0.001   0.000   0.000   4.059  -1.623   0.000   0.000   0.010   0.000   0.001   0.000
 -0.000  -0.001   0.000   1.916  -4.375   0.000   0.001  -0.000  -1.623   2.940   0.000   0.000   0.016   0.000  -0.001   0.001
 -0.000   0.000   0.007   0.000  -0.000   0.000   0.000  -0.003   0.000   0.000  -0.265   0.108  -0.000  -0.000  -0.000   0.000
 -0.000  -0.000   0.001   0.000  -0.000   0.000   0.000  -0.001   0.000   0.000   0.108  -0.013   0.000   0.000   0.000   0.000
 -0.001  -0.001   0.000  -0.014  -0.027   0.001   0.001  -0.000   0.010   0.016  -0.000   0.000  -0.006   0.000  -0.000   0.007
 -0.000   0.000   0.001   0.000  -0.000   0.000   0.000  -0.000   0.000   0.000  -0.000   0.000  -0.000  -0.004   0.000   0.000
 -0.027   0.014  -0.000  -0.001   0.001   0.016  -0.010   0.000   0.001  -0.001   0.000   0.000  -0.000   0.000  -0.006   0.000
 -0.000  -0.000   0.000  -0.000  -0.000   0.000   0.000  -0.000   0.000   0.001   0.000  -0.000   0.007   0.000   0.000  -0.001
  0.000  -0.000  -0.000   0.000   0.000  -0.000  -0.000   0.000   0.000  -0.000   0.000  -0.000   0.000   0.007  -0.000  -0.000
 -0.000   0.000  -0.000  -0.000   0.000   0.001  -0.000   0.000   0.000  -0.000  -0.000   0.000  -0.000   0.000   0.007  -0.000


------------------------ aborting loop because EDIFF is reached ----------------------------------------


    CHARGE:  cpu time      0.9209: real time      0.9226
    FORLOC:  cpu time      0.0080: real time      0.0080
    FORNL :  cpu time      6.1343: real time      6.1429
    STRESS:  cpu time     16.3953: real time     16.4253
    FORCOR:  cpu time      0.0256: real time      0.0257
    FORHAR:  cpu time      0.0058: real time      0.0058
    MIXING:  cpu time      0.0271: real time      0.0272
    OFIELD:  cpu time      0.0000: real time      0.0000

  Number of pair interactions contributing to vdW energy:   32966
  Edisp (eV):   -0.83561
    FORVDW:  cpu time      0.0020: real time      0.0020

  FORCE on cell =-STRESS in cart. coord.  units (eV):
  Direction    XX          YY          ZZ          XY          YZ          ZX
  --------------------------------------------------------------------------------------
  Alpha Z    35.98933    35.98933    35.98933
  Ewald    7154.28496  7154.28689 -9065.62784     0.00177    -0.00035     0.00306
  Hartree  7957.77635  7957.77753 -7405.71864     0.00134     0.00002    -0.00015
  E(xc)    -236.28968  -236.28969  -236.62275    -0.00000    -0.00000    -0.00000
  Local  -16157.32551-16157.32742 15421.56751    -0.00318     0.00015    -0.00200
  n-local   453.49444   453.88531   453.35485    -0.16499     0.07861    -0.08889
  augment   -34.93625   -34.93634   -35.27023     0.00000     0.00002    -0.00013
  Kinetic   828.06495   827.58622   832.33457     0.10650    -0.02372    -0.05838
  Fock        0.00000     0.00000     0.00000     0.00000     0.00000     0.00000
  vdW        -1.00496    -1.00495    -0.02851     0.00000     0.00000    -0.00000
  -------------------------------------------------------------------------------------
  Total       0.01025     0.01025    -0.02172    -0.00000     0.00000     0.00000
  in kB       0.02881     0.02881    -0.06102    -0.00000     0.00000     0.00000
  external pressure =       -0.00 kB  Pullay stress =        0.00 kB


 VOLUME and BASIS-vectors are now :
 -----------------------------------------------------------------------------
  energy-cutoff  :      520.00
  volume of cell :      570.20
      direct lattice vectors                 reciprocal lattice vectors
     6.092473600  0.000000002  0.000000000     0.164136944  0.094764567 -0.000000000
    -3.046236797  5.276233657  0.000000000    -0.000000000  0.189529135 -0.000000000
     0.000000000  0.000000000 17.738228642    -0.000000000 -0.000000000  0.056375415

  length of vectors
     6.092473600  6.092470782 17.738228642     0.189529047  0.189529135  0.056375415


 FORCES acting on ions
    electron-ion (+dipol)            ewald-force                    non-local-force                 convergence-correction
 -----------------------------------------------------------------------------------------------
   0.349E-03 -.255E-03 -.668E+00   -.118E-02 0.746E-03 0.674E+00   0.434E-18 0.000E+00 -.832E-02   -.153E-06 -.173E-06 0.124E-03
   -.497E-03 0.358E-03 0.651E+00   -.152E-04 0.722E-04 -.657E+00   0.000E+00 -.867E-18 0.902E-02   0.115E-06 0.245E-06 -.816E-03
   -.854E+02 0.827E-01 -.510E+03   0.870E+02 -.950E-01 0.512E+03   -.165E+01 0.454E-02 -.231E+01   -.401E-02 0.492E-04 -.738E-02
   0.426E+02 -.740E+02 -.510E+03   -.434E+02 0.754E+02 0.512E+03   0.823E+00 -.143E+01 -.231E+01   0.196E-02 -.350E-02 -.738E-02
   0.428E+02 0.739E+02 -.510E+03   -.436E+02 -.753E+02 0.512E+03   0.831E+00 0.143E+01 -.231E+01   0.205E-02 0.345E-02 -.738E-02
   -.428E+02 -.739E+02 0.510E+03   0.436E+02 0.753E+02 -.512E+03   -.831E+00 -.143E+01 0.231E+01   -.241E-02 -.324E-02 0.718E-02
   0.854E+02 -.995E-01 0.510E+03   -.870E+02 0.948E-01 -.512E+03   0.165E+01 -.449E-02 0.231E+01   0.401E-02 -.467E-03 0.718E-02
   -.426E+02 0.740E+02 0.510E+03   0.434E+02 -.754E+02 -.512E+03   -.823E+00 0.143E+01 0.231E+01   -.160E-02 0.370E-02 0.718E-02
 -----------------------------------------------------------------------------------------------
   0.603E-01 -.347E-01 -.467E-03   -.711E-14 0.142E-13 0.114E-12   -.555E-15 0.000E+00 0.578E-03   -.129E-05 0.813E-06 -.129E-02
 
 
 POSITION                                       TOTAL-FORCE (eV/Angst)
 -----------------------------------------------------------------------------------
     -3.04623      5.27623      6.43457         0.000000      0.000000     -0.002103
      3.04623      1.75875      6.43127         0.000000     -0.000000      0.002733
      3.92526      3.51695      7.80140        -0.005827      0.001595      0.008915
      1.08407      1.64090      7.80138         0.001532     -0.005844      0.008915
      4.12935      0.11840      7.80139         0.004295      0.004249      0.008915
      5.00927      1.64028      5.06447        -0.004008     -0.003941     -0.009125
      2.16730      3.51804      5.06448         0.005417     -0.001501     -0.009125
      1.96210      0.11794      5.06444        -0.001409      0.005441     -0.009125
 -----------------------------------------------------------------------------------
    total drift:                                0.060312     -0.034666     -0.001184


--------------------------------------------------------------------------------------------------------



  FREE ENERGIE OF THE ION-ELECTRON SYSTEM (eV)
  ---------------------------------------------------
  free  energy   TOTEN  =       -31.04474578 eV

  energy  without entropy=      -31.04474578  energy(sigma->0) =      -31.04474578
 
 d Force =-0.2387218E-05[-0.246E-05,-0.231E-05]  d Energy = 0.3018097E-05-0.541E-05
 d Force =-0.2214854E-01[-0.221E-01,-0.221E-01]  d Ewald  = 0.3973317E-01-0.619E-01


--------------------------------------------------------------------------------------------------------


    POTLOK:  cpu time      0.0673: real time      0.0690


--------------------------------------------------------------------------------------------------------




--------------------------------------------------------------------------------------------------------


  
 reached required accuracy - stopping structural energy minimisation
     LOOP+:  cpu time     35.1870: real time     35.2899
    4ORBIT:  cpu time      0.0000: real time      0.0000

 total amount of memory used by VASP MPI-rank0  2439857. kBytes
=======================================================================

   base      :      30000. kBytes
   nonl-proj :     436649. kBytes
   fftplans  :      88392. kBytes
   grid      :     233496. kBytes
   one-center:        248. kBytes
   wavefun   :    1651072. kBytes
 
  
  
 General timing and accounting informations for this job:
 ========================================================
  
                  Total CPU time used (sec):      298.897
                            User time (sec):      296.541
                          System time (sec):        2.355
                         Elapsed time (sec):      299.877
  
                   Maximum memory used (kb):     4245152.
                   Average memory used (kb):          N/A
  
                          Minor page faults:       639272
                          Major page faults:            0
                 Voluntary context switches:         7132
