 vasp.6.4.3 19Mar24 (build Jul 08 2025 21:20:34) complex                        
  
 executed on             LinuxIFC date 2025.10.30  12:06:59
 running   32 mpi-ranks, on    1 nodes
 distrk:  each k-point on   32 cores,    1 groups
 distr:  one band on NCORE=   1 cores,   32 groups


--------------------------------------------------------------------------------------------------------


 INCAR:
   ISTART = 1            (Read existing wavefunction, if there)
   LREAL = .FALSE.       (Projection operators: automatic)
   ENCUT = 500        (Cut-off energy for plane wave basis set, in eV)
   PREC = Accurate   (Precision level: Normal or Accurate, set Accurate when perform structure lattice relaxation calculation)
   LWAVE = .FALSE.        (Write WAVECAR or not)
   LCHARG = .FALSE.        (Write CHGCAR or not)
   ADDGRID = .TRUE.        (Increase grid, helps GGA convergence)
   LASPH = .TRUE.        (Give more accurate total energies and band structure calculations)
   PREC = Accurate      (Accurate strictly avoids any aliasing or wrap around errors)
   ISMEAR = 0            (Gaussian smearing, metals:1)
   SIGMA = 0.05         (Smearing value in eV, metals:0.2)
   NELM = 90           (Max electronic SCF steps)
   NELMIN = 6            (Min electronic SCF steps)
   EDIFF = 1E-06        (SCF energy convergence, in eV)
   NSW = 0          (Max ionic steps)
   IBRION = 2            (Algorithm: 0-MD, 1-Quasi-New, 2-CG)
   EDIFFG = -2E-02        (Ionic convergence, eV/AA)
   ISPIN = 2
   MAGMOM = 5.0 -5.0 0.0 0.0 0.0 0.0 0.0 0.0
   LDAU = .TRUE.
   LDAUTYPE = 2
   LDAUL = 2 -1
   LDAUU = 4.5 0.0
   LDAUJ = 0.9 0.0
   IVDW = 10

 POTCAR:    PAW_PBE Fe 06Sep2000                  
 POTCAR:    PAW_PBE Cl 06Sep2000                  
 -----------------------------------------------------------------------------
|                                                                             |
|           W    W    AA    RRRRR   N    N  II  N    N   GGGG   !!!           |
|           W    W   A  A   R    R  NN   N  II  NN   N  G    G  !!!           |
|           W    W  A    A  R    R  N N  N  II  N N  N  G       !!!           |
|           W WW W  AAAAAA  RRRRR   N  N N  II  N  N N  G  GGG   !            |
|           WW  WW  A    A  R   R   N   NN  II  N   NN  G    G                |
|           W    W  A    A  R    R  N    N  II  N    N   GGGG   !!!           |
|                                                                             |
|     For optimal performance we recommend to set                             |
|       NCORE = 2 up to number-of-cores-per-socket                            |
|     NCORE specifies how many cores store one orbital (NPAR=cpu/NCORE).      |
|     This setting can greatly improve the performance of VASP for DFT.       |
|     The default, NCORE=1 might be grossly inefficient on modern             |
|     multi-core architectures or massively parallel machines. Do your        |
|     own testing! More info at https://www.vasp.at/wiki/index.php/NCORE      |
|     Unfortunately you need to use the default for GW and RPA                |
|     calculations (for HF NCORE is supported but not extensively tested      |
|     yet).                                                                   |
|                                                                             |
 -----------------------------------------------------------------------------

 POTCAR:    PAW_PBE Fe 06Sep2000                  
   SHA256 =  cd5a22d9368cc8b5cc476bea79732366149640da08ac9009b0e1b7fc627eea28 Fe/POTCAR             
   COPYR  = (c) Copyright 06Sep2000 Georg Kresse                                                    
   COPYR  = This file is part of the software VASP. Any use, copying, and all other rights are regul
   COPYR  = If you do not have a valid VASP license, you may not use, copy or distribute this file. 
   VRHFIN =Fe:  d7 s1                                                                               
   LEXCH  = PE                                                                                      
   EATOM  =   594.3153 eV,   43.6809 Ry                                                             
                                                                                                    
   TITEL  = PAW_PBE Fe 06Sep2000                                                                    
   LULTRA =        F    use ultrasoft PP ?                                                          
   IUNSCR =        1    unscreen: 0-lin 1-nonlin 2-no                                               
   RPACOR =    2.000    partial core radius                                                         
   POMASS =   55.847; ZVAL   =    8.000    mass and valenz                                          
   RCORE  =    2.300    outmost cutoff radius                                                       
   RWIGS  =    2.460; RWIGS  =    1.302    wigner-seitz radius (au A)                               
   ENMAX  =  267.882; ENMIN  =  200.911 eV                                                          
   RCLOC  =    1.701    cutoff for local pot                                                        
   LCOR   =        T    correct aug charges                                                         
   LPAW   =        T    paw PP                                                                      
   EAUG   =  511.368                                                                                
   DEXC   =    0.000                                                                                
   RMAX   =    2.356    core radius for proj-oper                                                   
   RAUG   =    1.300    factor for augmentation sphere                                              
   RDEP   =    2.442    radius for radial grids                                                     
   RDEPT  =    1.890    core radius for aug-charge                                                  
                                                                                                    
   Atomic configuration                                                                             
    9 entries                                                                                       
     n  l   j            E        occ.                                                              
     1  0  0.50     -6993.8440   2.0000                                                             
     2  0  0.50      -814.6047   2.0000                                                             
     2  1  1.50      -693.3689   6.0000                                                             
     3  0  0.50       -89.4732   2.0000                                                             
     3  1  1.50       -55.6373   6.0000                                                             
     3  2  2.50        -3.8151   7.0000                                                             
     4  0  0.50        -4.2551   1.0000                                                             
     4  1  1.50        -3.4015   0.0000                                                             
     4  3  2.50        -1.3606   0.0000                                                             
   Description                                                                                      
     l       E           TYP  RCUT    TYP  RCUT                                                     
     2     -3.8151135     23  2.300                                                                 
     2     -5.1756961     23  2.300                                                                 
     0     -4.2550963     23  2.300                                                                 
     0      7.2035603     23  2.300                                                                 
     1     -2.7211652     23  2.300                                                                 
     1     18.4316424     23  2.300                                                                 
  local pseudopotential read in
  partial core-charges read in
  partial kinetic energy density read in
  atomic valenz-charges read in
  non local Contribution for L=           2  read in
    real space projection operators read in
  non local Contribution for L=           2  read in
    real space projection operators read in
  non local Contribution for L=           0  read in
    real space projection operators read in
  non local Contribution for L=           0  read in
    real space projection operators read in
  non local Contribution for L=           1  read in
    real space projection operators read in
  non local Contribution for L=           1  read in
    real space projection operators read in
    PAW grid and wavefunctions read in
 
   number of l-projection  operators is LMAX  =           6
   number of lm-projection operators is LMMAX =          18
 
 POTCAR:    PAW_PBE Cl 06Sep2000                  
   SHA256 =  9f1b6e6ed4247ac726a768b330d26d7667cc3c95a39ff49c1d064c2d9dcce931 Cl/POTCAR             
   COPYR  = (c) Copyright 06Sep2000 Georg Kresse                                                    
   COPYR  = This file is part of the software VASP. Any use, copying, and all other rights are regul
   COPYR  = If you do not have a valid VASP license, you may not use, copy or distribute this file. 
   VRHFIN =Cl: s2p5                                                                                 
   LEXCH  = PE                                                                                      
   EATOM  =   409.7259 eV,   30.1140 Ry                                                             
                                                                                                    
   TITEL  = PAW_PBE Cl 06Sep2000                                                                    
   LULTRA =        F    use ultrasoft PP ?                                                          
   IUNSCR =        1    unscreen: 0-lin 1-nonlin 2-no                                               
   RPACOR =    1.500    partial core radius                                                         
   POMASS =   35.453; ZVAL   =    7.000    mass and valenz                                          
   RCORE  =    1.900    outmost cutoff radius                                                       
   RWIGS  =    2.100; RWIGS  =    1.111    wigner-seitz radius (au A)                               
   ENMAX  =  262.472; ENMIN  =  196.854 eV                                                          
   ICORE  =        2    local potential                                                             
   LCOR   =        T    correct aug charges                                                         
   LPAW   =        T    paw PP                                                                      
   EAUG   =  356.192                                                                                
   DEXC   =    0.000                                                                                
   RMAX   =    1.945    core radius for proj-oper                                                   
   RAUG   =    1.300    factor for augmentation sphere                                              
   RDEP   =    2.020    radius for radial grids                                                     
   RDEPT  =    1.678    core radius for aug-charge                                                  
                                                                                                    
   Atomic configuration                                                                             
    6 entries                                                                                       
     n  l   j            E        occ.                                                              
     1  0  0.50     -2751.1850   2.0000                                                             
     2  0  0.50      -252.6861   2.0000                                                             
     2  1  1.50      -191.6157   6.0000                                                             
     3  0  0.50       -20.6916   2.0000                                                             
     3  1  0.50        -8.5949   5.0000                                                             
     3  2  1.50        -8.1635   0.0000                                                             
   Description                                                                                      
     l       E           TYP  RCUT    TYP  RCUT                                                     
     0    -20.6915656     23  1.900                                                                 
     0    -22.0521482     23  1.900                                                                 
     1     -8.5948577     23  1.900                                                                 
     1     -5.3847331     23  1.900                                                                 
     2     -8.1634956     23  1.900                                                                 
  local pseudopotential read in
  partial core-charges read in
  partial kinetic energy density read in
  atomic valenz-charges read in
  non local Contribution for L=           0  read in
    real space projection operators read in
  non local Contribution for L=           0  read in
    real space projection operators read in
  non local Contribution for L=           1  read in
    real space projection operators read in
  non local Contribution for L=           1  read in
    real space projection operators read in
    PAW grid and wavefunctions read in
 
   number of l-projection  operators is LMAX  =           4
   number of lm-projection operators is LMMAX =           8
 
  PAW_PBE Fe 06Sep2000                  :
 energy of atom  1       EATOM= -594.3153
 kinetic energy error for atom=    0.0026 (will be added to EATOM!!)
  PAW_PBE Cl 06Sep2000                  :
 energy of atom  2       EATOM= -409.7259
 kinetic energy error for atom=    0.0030 (will be added to EATOM!!)
 
 
 POSCAR: Fe Cl
  positions in direct lattice
  velocities in cartesian coordinates



  D2 vdW correction parametrized for the method pbe       
  IVDW =  10
  VDW_C6 =   10.800   5.070 Jnm^6/mol
  VDW_R0 =    1.562   1.639 A
  VDW_RADIUS =    50.000 A
  VDW_S6 =     0.750
  VDW_SR =     1.000
  VDW_D =    20.000
  LVDW_EWALD = F


 exchange-correlation table for PE
   RHO(1)=    0.500       N(1)  =     2000
   RHO(2)=  100.500       N(2)  =     4000
 


--------------------------------------------------------------------------------------------------------


 ion  position               nearest neighbor table
   1  1.000  0.000  0.226-   6 2.40   7 2.40   8 2.40   5 2.40   4 2.40   3 2.40
   2  0.667  0.333  0.226-   4 2.40   3 2.40   5 2.40   7 2.40   8 2.40   6 2.40
   3  0.972  0.667  0.273-   2 2.40   1 2.40
   4  0.333  0.306  0.273-   2 2.40   1 2.40
   5  0.694  0.028  0.273-   2 2.40   1 2.40
   6  0.972  0.305  0.179-   1 2.40   2 2.40
   7  0.695  0.667  0.179-   1 2.40   2 2.40
   8  0.333  0.028  0.179-   1 2.40   2 2.40
 
  LATTYP: Found a hexagonal cell.
 ALAT       =     6.1818200000
 C/A-ratio  =     4.6673795096
  
  Lattice vectors:
  
 A1 = (   6.1818200000,   0.0000000000,   0.0000000000)
 A2 = (  -3.0909100000,   5.3536100000,   0.0000000000)
 A3 = (   0.0000000000,   0.0000000000,  28.8529000000)


Analysis of symmetry for initial positions (statically):
=====================================================================
 Subroutine PRICEL returns:
 Original cell was already a primitive cell.
 

 Routine SETGRP: Setting up the symmetry group for a 
 hexagonal supercell.


 Subroutine GETGRP returns: Found  3 space group operations
 (whereof  3 operations were pure point group operations)
 out of a pool of 24 trial point group operations.


The static configuration has the point symmetry C_3 .


Analysis of symmetry for dynamics (positions and initial velocities):
=====================================================================
 Subroutine PRICEL returns:
 Original cell was already a primitive cell.
 

 Routine SETGRP: Setting up the symmetry group for a 
 hexagonal supercell.


 Subroutine GETGRP returns: Found  3 space group operations
 (whereof  3 operations were pure point group operations)
 out of a pool of 24 trial point group operations.


The dynamic configuration has the point symmetry C_3 .


Analysis of structural, dynamic, and magnetic symmetry:
=====================================================================
 Subroutine PRICEL returns:
 Original cell was already a primitive cell.
 

 Routine SETGRP: Setting up the symmetry group for a 
 hexagonal supercell.


 Subroutine GETGRP returns: Found  3 space group operations
 (whereof  3 operations were pure point group operations)
 out of a pool of 24 trial point group operations.


The overall configuration has the point symmetry C_3 .


 Subroutine INISYM returns: Found  3 space group operations
 (whereof  3 operations are pure point group operations),
 and found     1 'primitive' translations


----------------------------------------------------------------------------------------

                                     Primitive cell                                     

  volume of cell :     954.8883

  direct lattice vectors                    reciprocal lattice vectors
     6.181820000  0.000000000  0.000000000     0.161764658  0.093394924  0.000000000
    -3.090910000  5.353610000  0.000000000     0.000000000  0.186789848  0.000000000
     0.000000000  0.000000000 28.852900000     0.000000000  0.000000000  0.034658561

  length of vectors
     6.181820000  6.181817262 28.852900000     0.186789766  0.186789848  0.034658561

  position of ions in fractional coordinates (direct lattice)
     0.999998821  0.000002115  0.226233251
     0.666664086  0.333334924  0.226319974
     0.972345920  0.666655971  0.273456920
     0.333343748  0.305689924  0.273457060
     0.694309806  0.027655736  0.273456846
     0.972008223  0.305281253  0.179015435
     0.694716406  0.666727386  0.179015592
     0.333272990  0.027992691  0.179014922

  ion indices of the primitive-cell ions
   primitive index   ion index
                 1           1
                 2           2
                 3           3
                 4           4
                 5           5
                 6           6
                 7           7
                 8           8

----------------------------------------------------------------------------------------

 
 
 KPOINTS: K-Spacing Value to Generate K-Mesh: 0.04

Automatic generation of k-mesh.
 Grid dimensions read from file:
 generate k-points for:   14   14    1

 Generating k-lattice:

  Cartesian coordinates                     Fractional coordinates (reciprocal lattice)
     0.011554618  0.006671066  0.000000000     0.071428571 -0.000000000  0.000000000
     0.000000000  0.013342132  0.000000000     0.000000000  0.071428571  0.000000000
     0.000000000  0.000000000  0.034658561     0.000000000  0.000000000  1.000000000

  Length of vectors
     0.013342126  0.013342132  0.034658561

  Shift w.r.t. Gamma in fractional coordinates (k-lattice)
     0.000000000  0.000000000  0.000000000

 
 Subroutine IBZKPT returns following result:
 ===========================================
 
 Found     34 irreducible k-points:
 
 Following reciprocal coordinates:
            Coordinates               Weight
  0.000000  0.000000  0.000000      1.000000
  0.071429  0.000000  0.000000      6.000000
  0.142857  0.000000  0.000000      6.000000
  0.214286  0.000000  0.000000      6.000000
  0.285714  0.000000  0.000000      6.000000
  0.357143  0.000000  0.000000      6.000000
  0.428571  0.000000  0.000000      6.000000
  0.500000  0.000000  0.000000      3.000000
  0.071429  0.071429  0.000000      6.000000
  0.142857  0.071429  0.000000      6.000000
 -0.142857  0.214286  0.000000      6.000000
  0.214286  0.071429  0.000000      6.000000
 -0.214286  0.285714  0.000000      6.000000
  0.285714  0.071429  0.000000      6.000000
 -0.285714  0.357143  0.000000      6.000000
  0.357143  0.071429  0.000000      6.000000
 -0.357143  0.428571  0.000000      6.000000
  0.428571  0.071429  0.000000      6.000000
 -0.428571  0.500000  0.000000      6.000000
  0.142857  0.142857  0.000000      6.000000
  0.214286  0.142857  0.000000      6.000000
 -0.214286  0.357143  0.000000      6.000000
  0.285714  0.142857  0.000000      6.000000
 -0.285714  0.428571  0.000000      6.000000
  0.357143  0.142857  0.000000      6.000000
 -0.357143  0.500000  0.000000      6.000000
  0.428571  0.142857  0.000000      6.000000
  0.214286  0.214286  0.000000      6.000000
  0.285714  0.214286  0.000000      6.000000
 -0.285714  0.500000  0.000000      6.000000
  0.357143  0.214286  0.000000      6.000000
 -0.357143 -0.428571  0.000000      6.000000
  0.285714  0.285714  0.000000      6.000000
  0.357143  0.285714  0.000000      6.000000
 
 Following cartesian coordinates:
            Coordinates               Weight
  0.000000  0.000000  0.000000      1.000000
  0.011555  0.006671  0.000000      6.000000
  0.023109  0.013342  0.000000      6.000000
  0.034664  0.020013  0.000000      6.000000
  0.046218  0.026684  0.000000      6.000000
  0.057773  0.033355  0.000000      6.000000
  0.069328  0.040026  0.000000      6.000000
  0.080882  0.046697  0.000000      3.000000
  0.011555  0.020013  0.000000      6.000000
  0.023109  0.026684  0.000000      6.000000
 -0.023109  0.026684  0.000000      6.000000
  0.034664  0.033355  0.000000      6.000000
 -0.034664  0.033355  0.000000      6.000000
  0.046218  0.040026  0.000000      6.000000
 -0.046218  0.040026  0.000000      6.000000
  0.057773  0.046697  0.000000      6.000000
 -0.057773  0.046697  0.000000      6.000000
  0.069328  0.053369  0.000000      6.000000
 -0.069328  0.053369  0.000000      6.000000
  0.023109  0.040026  0.000000      6.000000
  0.034664  0.046697  0.000000      6.000000
 -0.034664  0.046697  0.000000      6.000000
  0.046218  0.053369  0.000000      6.000000
 -0.046218  0.053369  0.000000      6.000000
  0.057773  0.060040  0.000000      6.000000
 -0.057773  0.060040  0.000000      6.000000
  0.069328  0.066711  0.000000      6.000000
  0.034664  0.060040  0.000000      6.000000
  0.046218  0.066711  0.000000      6.000000
 -0.046218  0.066711  0.000000      6.000000
  0.057773  0.073382  0.000000      6.000000
 -0.057773 -0.113408  0.000000      6.000000
  0.046218  0.080053  0.000000      6.000000
  0.057773  0.086724  0.000000      6.000000
 


--------------------------------------------------------------------------------------------------------




 Dimension of arrays:
   k-points           NKPTS =     34   k-points in BZ     NKDIM =     34   number of bands    NBANDS=     64
   number of dos      NEDOS =    301   number of ions     NIONS =      8
   non local maximal  LDIM  =      6   non local SUM 2l+1 LMDIM =     18
   total plane-waves  NPLWV = 483840
   max r-space proj   IRMAX =      1   max aug-charges    IRDMAX= 144579
   dimension x,y,z NGX =    48 NGY =   48 NGZ =  210
   dimension x,y,z NGXF=    96 NGYF=   96 NGZF=  420
   support grid    NGXF=   192 NGYF=  192 NGZF=  840
   ions per type =               2   6
   NGX,Y,Z   is equivalent  to a cutoff of  12.91, 12.91, 12.10 a.u.
   NGXF,Y,Z  is equivalent  to a cutoff of  25.82, 25.82, 24.20 a.u.

 SYSTEM =  unknown system                          
 POSCAR =  Fe Cl                                   

 Startparameter for this run:
   NWRITE =      2    write-flag & timer
   PREC   = accura    normal or accurate (medium, high low for compatibility)
   ISTART =      0    job   : 0-new  1-cont  2-samecut
   ICHARG =      2    charge: 1-file 2-atom 10-const
   ISPIN  =      2    spin polarized calculation?
   LNONCOLLINEAR =      F non collinear calculations
   LSORBIT =      F    spin-orbit coupling
   INIWAV =      1    electr: 0-lowe 1-rand  2-diag
   LASPH  =      T    aspherical Exc in radial PAW
 Electronic Relaxation 1
   ENCUT  =  500.0 eV  36.75 Ry    6.06 a.u.  11.27 11.27 52.61*2*pi/ulx,y,z
   ENINI  =  500.0     initial cutoff
   ENAUG  =  511.4 eV  augmentation charge cutoff
   NELM   =     90;   NELMIN=  6; NELMDL=  0     # of ELM steps 
   EDIFF  = 0.1E-05   stopping-criterion for ELM
   LREAL  =      F    real-space projection
   NLSPLINE    = F    spline interpolate recip. space projectors
   LCOMPAT=      F    compatible to vasp.4.4
   GGA_COMPAT  = T    GGA compatible to vasp.4.4-vasp.4.6
   LMAXPAW     = -100 max onsite density
   LMAXMIX     =    2 max onsite mixed and CHGCAR
   VOSKOWN=      0    Vosko Wilk Nusair interpolation
   ROPT   =    0.00000   0.00000
 Ionic relaxation
   EDIFFG = -.2E-01   stopping-criterion for IOM
   NSW    =      0    number of steps for IOM
   NBLOCK =      1;   KBLOCK =      1    inner block; outer block 
   IBRION =     -1    ionic relax: 0-MD 1-quasi-New 2-CG
   NFREE  =      1    steps in history (QN), initial steepest desc. (CG)
   ISIF   =      2    stress and relaxation
   IWAVPR =     10    prediction:  0-non 1-charg 2-wave 3-comb
   ISYM   =      2    0-nonsym 1-usesym 2-fastsym
   LCORR  =      T    Harris-Foulkes like correction to forces

   POTIM  = 0.5000    time-step for ionic-motion
   TEIN   =    0.0    initial temperature
   TEBEG  =    0.0;   TEEND  =   0.0 temperature during run
   SMASS  =  -3.00    Nose mass-parameter (am)
   estimated Nose-frequenzy (Omega)   =  0.10E-29 period in steps = 0.13E+47 mass=  -0.873E-27a.u.
   SCALEE = 1.0000    scale energy and forces
   NPACO  =    256;   APACO  = 10.0  distance and # of slots for P.C.
   PSTRESS=    0.0 pullay stress

  Mass of Ions in am
   POMASS =  55.85 35.45
  Ionic Valenz
   ZVAL   =   8.00  7.00
  Atomic Wigner-Seitz radii
   RWIGS  =  -1.00 -1.00
  virtual crystal weights 
   VCA    =   1.00  1.00
   NELECT =      58.0000    total number of electrons
   NUPDOWN=      -1.0000    fix difference up-down

 DOS related values:
   EMIN   =  10.00;   EMAX   =-10.00  energy-range for DOS
   EFERMI =   0.00;   METHOD = LEGACY      
   ISMEAR =     0;   SIGMA  =   0.05  broadening in eV -4-tet -1-fermi 0-gaus

 Electronic relaxation 2 (details)
   IALGO  =     38    algorithm
   LDIAG  =      T    sub-space diagonalisation (order eigenvalues)
   LSUBROT=      F    optimize rotation matrix (better conditioning)
   TURBO    =      0    0=normal 1=particle mesh
   IRESTART =      0    0=no restart 2=restart with 2 vectors
   NREBOOT  =      0    no. of reboots
   NMIN     =      0    reboot dimension
   EREF     =   0.00    reference energy to select bands
   IMIX   =      4    mixing-type and parameters
     AMIX     =   0.40;   BMIX     =  1.00
     AMIX_MAG =   1.60;   BMIX_MAG =  1.00
     AMIN     =   0.10
     WC   =   100.;   INIMIX=   1;  MIXPRE=   1;  MAXMIX= -45

 Intra band minimization:
   WEIMIN = 0.0000     energy-eigenvalue tresh-hold
   EBREAK =  0.39E-08  absolut break condition
   DEPER  =   0.30     relativ break condition  

   TIME   =   0.40     timestep for ELM

  volume/ion in A,a.u.               =     119.36       805.49
  Fermi-wavevector in a.u.,A,eV,Ry     =   0.643527  1.216089  5.634537  0.414127
  Thomas-Fermi vector in A             =   1.710556
 
 Write flags
   LWAVE        =      F    write WAVECAR
   LDOWNSAMPLE  =      F    k-point downsampling of WAVECAR
   LCHARG       =      F    write CHGCAR
   LVTOT        =      F    write LOCPOT, total local potential
   LVHAR        =      F    write LOCPOT, Hartree potential only
   WRT_POTENTIAL= false  ! write potential to hdf5 file
   LELF         =      F    write electronic localiz. function (ELF)
   LORBIT       =      0    0 simple, 1 ext, 2 COOP (PROOUT), +10 PAW based schemes


 Dipole corrections
   LMONO      =      F    monopole corrections only (constant potential shift)
   LDIPOL     =      F    correct potential (dipole corrections)
   IDIPOL     =      0    1-x, 2-y, 3-z, 4-all directions 
   EPSILON    =  1.0000000 bulk dielectric constant
   LVACPOTAV  =      F  vacuum potentials using an averaging scheme for the charge density
   VACPOTFLAT =  0.1000000 required flatness to determine vacuum potential
 LDA+U is selected, type is set to LDAUTYPE =  2
   angular momentum for each species LDAUL =     2   -1
   U (eV)           for each species LDAUU =   4.5  0.0
   J (eV)           for each species LDAUJ =   0.9  0.0
 Exchange correlation treatment:
   GGA     = PE    functional components
   XC_C    = 1    coefficients multiplying the functional components
   LIBXC   =     F    Libxc                    
   VOSKOWN =     0    Vosko Wilk Nusair interpolation
   LHFCALC =     F    Hartree Fock is set to
   LHFONE  =     F    Hartree Fock one center treatment
   AEXX    =    0.0000 exact exchange contribution

 Parameters of functionals:
   PE:
     No parameter
 
 Van der Waals corrections
   IVDW    =    10    specifies the selected vdW correction

 Linear response parameters
   LEPSILON=     F    determine dielectric tensor
   LRPA    =     F    only Hartree local field effects (RPA)
   LNABLA  =     F    use nabla operator in PAW spheres
   LVEL    =     F    velocity operator in full k-point grid
   CSHIFT  =0.1000    complex shift for real part using Kramers Kronig
   OMEGAMAX=  -1.0    maximum frequency
   DEG_THRESHOLD= 0.2000000E-02 threshold for treating states as degnerate
   RTIME   =   -0.100 relaxation time in fs
  (WPLASMAI=    0.000 imaginary part of plasma frequency in eV, 0.658/RTIME)
   DFIELD  = 0.0000000 0.0000000 0.0000000 field for delta impulse in time
 
  Optional k-point grid parameters
   LKPOINTS_OPT  =     F    use optional k-point grid
   KPOINTS_OPT_MODE=     1    mode for optional k-point grid
 
 Orbital magnetization related:
   ORBITALMAG=     F  switch on orbital magnetization
   LCHIMAG   =     F  perturbation theory with respect to B field
   DQ        =  0.001000  dq finite difference perturbation B field
   LLRAUG    =     F  two centre corrections for induced B field
   LBONE     =     F  B-component reconstruction in AE one-centre
   LVGVCALC  =     T  calculate vGv susceptibility
   LVGVAPPL  =     F  apply vGv susceptibility instead of pGv for G=0

 Random number generation:
   RANDOM_GENERATOR = DEFAULT
   PCG_SEED         = not used


--------------------------------------------------------------------------------------------------------


 Static calculation
 charge density and potential will be updated during run
 spin polarized calculation
 Variant of blocked Davidson
 Davidson routine will perform the subspace rotation
 perform sub-space diagonalisation
    after iterative eigenvector-optimisation
 modified Broyden-mixing scheme, WC =      100.0
 initial mixing is a Kerker type mixing with AMIX =  0.4000 and BMIX =      1.0000
 Hartree-type preconditioning will be used
 using additional bands           35
 reciprocal scheme for non local part
 use partial core corrections
 calculate Harris-corrections to forces 
   (improved forces if not selfconsistent)
 use gradient corrections 
 use of overlap-Matrix (Vanderbilt PP)
 Gauss-broadening in eV      SIGMA  =   0.05


--------------------------------------------------------------------------------------------------------


  energy-cutoff  :      500.00
  volume of cell :      954.89
      direct lattice vectors                 reciprocal lattice vectors
     6.181820000  0.000000000  0.000000000     0.161764658  0.093394924  0.000000000
    -3.090910000  5.353610000  0.000000000     0.000000000  0.186789848  0.000000000
     0.000000000  0.000000000 28.852900000     0.000000000  0.000000000  0.034658561

  length of vectors
     6.181820000  6.181817262 28.852900000     0.186789766  0.186789848  0.034658561


 
 k-points in units of 2pi/SCALE and weight: K-Spacing Value to Generate K-Mesh: 0.04
   0.00000000  0.00000000  0.00000000       0.005
   0.01155462  0.00667107  0.00000000       0.031
   0.02310924  0.01334213  0.00000000       0.031
   0.03466386  0.02001320  0.00000000       0.031
   0.04621847  0.02668426  0.00000000       0.031
   0.05777309  0.03335533  0.00000000       0.031
   0.06932771  0.04002640  0.00000000       0.031
   0.08088233  0.04669746  0.00000000       0.015
   0.01155462  0.02001320  0.00000000       0.031
   0.02310924  0.02668426  0.00000000       0.031
  -0.02310924  0.02668426  0.00000000       0.031
   0.03466386  0.03335533  0.00000000       0.031
  -0.03466386  0.03335533  0.00000000       0.031
   0.04621847  0.04002640  0.00000000       0.031
  -0.04621847  0.04002640  0.00000000       0.031
   0.05777309  0.04669746  0.00000000       0.031
  -0.05777309  0.04669746  0.00000000       0.031
   0.06932771  0.05336853  0.00000000       0.031
  -0.06932771  0.05336853  0.00000000       0.031
   0.02310924  0.04002640  0.00000000       0.031
   0.03466386  0.04669746  0.00000000       0.031
  -0.03466386  0.04669746  0.00000000       0.031
   0.04621847  0.05336853  0.00000000       0.031
  -0.04621847  0.05336853  0.00000000       0.031
   0.05777309  0.06003959  0.00000000       0.031
  -0.05777309  0.06003959  0.00000000       0.031
   0.06932771  0.06671066  0.00000000       0.031
   0.03466386  0.06003959  0.00000000       0.031
   0.04621847  0.06671066  0.00000000       0.031
  -0.04621847  0.06671066  0.00000000       0.031
   0.05777309  0.07338173  0.00000000       0.031
  -0.05777309 -0.11340812  0.00000000       0.031
   0.04621847  0.08005279  0.00000000       0.031
   0.05777309  0.08672386  0.00000000       0.031
 
 k-points in reciprocal lattice and weights: K-Spacing Value to Generate K-Mesh: 0.04
   0.00000000  0.00000000  0.00000000       0.005
   0.07142857  0.00000000  0.00000000       0.031
   0.14285714  0.00000000  0.00000000       0.031
   0.21428571  0.00000000  0.00000000       0.031
   0.28571429  0.00000000  0.00000000       0.031
   0.35714286  0.00000000  0.00000000       0.031
   0.42857143  0.00000000  0.00000000       0.031
   0.50000000  0.00000000  0.00000000       0.015
   0.07142857  0.07142857  0.00000000       0.031
   0.14285714  0.07142857  0.00000000       0.031
  -0.14285714  0.21428571  0.00000000       0.031
   0.21428571  0.07142857  0.00000000       0.031
  -0.21428571  0.28571429  0.00000000       0.031
   0.28571429  0.07142857  0.00000000       0.031
  -0.28571429  0.35714286  0.00000000       0.031
   0.35714286  0.07142857  0.00000000       0.031
  -0.35714286  0.42857143  0.00000000       0.031
   0.42857143  0.07142857  0.00000000       0.031
  -0.42857143  0.50000000  0.00000000       0.031
   0.14285714  0.14285714  0.00000000       0.031
   0.21428571  0.14285714  0.00000000       0.031
  -0.21428571  0.35714286  0.00000000       0.031
   0.28571429  0.14285714  0.00000000       0.031
  -0.28571429  0.42857143  0.00000000       0.031
   0.35714286  0.14285714  0.00000000       0.031
  -0.35714286  0.50000000  0.00000000       0.031
   0.42857143  0.14285714  0.00000000       0.031
   0.21428571  0.21428571  0.00000000       0.031
   0.28571429  0.21428571  0.00000000       0.031
  -0.28571429  0.50000000  0.00000000       0.031
   0.35714286  0.21428571  0.00000000       0.031
  -0.35714286 -0.42857143  0.00000000       0.031
   0.28571429  0.28571429  0.00000000       0.031
   0.35714286  0.28571429  0.00000000       0.031
 
 position of ions in fractional coordinates (direct lattice) 
   0.99999882  0.00000212  0.22623325
   0.66666409  0.33333492  0.22631997
   0.97234592  0.66665597  0.27345692
   0.33334375  0.30568992  0.27345706
   0.69430981  0.02765574  0.27345685
   0.97200822  0.30528125  0.17901544
   0.69471641  0.66672739  0.17901559
   0.33327299  0.02799269  0.17901492
 
 position of ions in cartesian coordinates  (Angst):
   6.18180617  0.00001133  6.52748536
   3.09088913  1.78454518  6.52998759
   3.95029385  3.56901607  7.89002516
   1.11581101  1.63654463  7.89002921
   4.20661685  0.14805802  7.89002304
   5.06518299  1.63435677  5.16511446
   2.23381743  3.56939840  5.16511898
   1.97371075  0.14986195  5.16509963
 


--------------------------------------------------------------------------------------------------------


 k-point     1 :   0.0000 0.0000 0.0000  plane waves:   24345
 k-point     2 :   0.0714 0.0000 0.0000  plane waves:   24307
 k-point     3 :   0.1429 0.0000 0.0000  plane waves:   24257
 k-point     4 :   0.2143 0.0000 0.0000  plane waves:   24251
 k-point     5 :   0.2857 0.0000 0.0000  plane waves:   24248
 k-point     6 :   0.3571 0.0000 0.0000  plane waves:   24230
 k-point     7 :   0.4286 0.0000 0.0000  plane waves:   24210
 k-point     8 :   0.5000 0.0000 0.0000  plane waves:   24244
 k-point     9 :   0.0714 0.0714 0.0000  plane waves:   24251
 k-point    10 :   0.1429 0.0714 0.0000  plane waves:   24246
 k-point    11 :  -0.1429 0.2143 0.0000  plane waves:   24246
 k-point    12 :   0.2143 0.0714 0.0000  plane waves:   24223
 k-point    13 :  -0.2143 0.2857 0.0000  plane waves:   24223
 k-point    14 :   0.2857 0.0714 0.0000  plane waves:   24238
 k-point    15 :  -0.2857 0.3571 0.0000  plane waves:   24238
 k-point    16 :   0.3571 0.0714 0.0000  plane waves:   24216
 k-point    17 :  -0.3571 0.4286 0.0000  plane waves:   24216
 k-point    18 :   0.4286 0.0714 0.0000  plane waves:   24258
 k-point    19 :  -0.4286 0.5000 0.0000  plane waves:   24258
 k-point    20 :   0.1429 0.1429 0.0000  plane waves:   24215
 k-point    21 :   0.2143 0.1429 0.0000  plane waves:   24239
 k-point    22 :  -0.2143 0.3571 0.0000  plane waves:   24239
 k-point    23 :   0.2857 0.1429 0.0000  plane waves:   24241
 k-point    24 :  -0.2857 0.4286 0.0000  plane waves:   24241
 k-point    25 :   0.3571 0.1429 0.0000  plane waves:   24261
 k-point    26 :  -0.3571 0.5000 0.0000  plane waves:   24261
 k-point    27 :   0.4286 0.1429 0.0000  plane waves:   24264
 k-point    28 :   0.2143 0.2143 0.0000  plane waves:   24221
 k-point    29 :   0.2857 0.2143 0.0000  plane waves:   24224
 k-point    30 :  -0.2857 0.5000 0.0000  plane waves:   24224
 k-point    31 :   0.3571 0.2143 0.0000  plane waves:   24263
 k-point    32 :  -0.3571-0.4286 0.0000  plane waves:   24263
 k-point    33 :   0.2857 0.2857 0.0000  plane waves:   24239
 k-point    34 :   0.3571 0.2857 0.0000  plane waves:   24253

 maximum and minimum number of plane-waves per node :     24345    24210

 maximum number of plane-waves:     24345
 maximum index in each direction: 
   IXMAX=   11   IYMAX=   11   IZMAX=   52
   IXMIN=  -11   IYMIN=  -11   IZMIN=  -52


 serial   3D FFT for wavefunctions
 parallel 3D FFT for charge:
    minimum data exchange during FFTs selected (reduces bandwidth)


 total amount of memory used by VASP MPI-rank0   393134. kBytes
=======================================================================

   base      :      30000. kBytes
   nonl-proj :     241571. kBytes
   fftplans  :      19623. kBytes
   grid      :      48494. kBytes
   one-center:        248. kBytes
   wavefun   :      53198. kBytes
 
     INWAV:  cpu time      0.0000: real time      0.0002
 Broyden mixing: mesh for mixing (old mesh)
   NGX = 23   NGY = 23   NGZ =105
  (NGX  = 96   NGY  = 96   NGZ  =420)
  gives a total of  55545 points

 initial charge density was supplied:
 charge density of overlapping atoms calculated
 number of electron      58.0000000 magnetization       0.0000000
 keeping initial charge density in first step


--------------------------------------------------------------------------------------------------------


 Maximum index for augmentation-charges         4183 (set IRDMAX)


--------------------------------------------------------------------------------------------------------


 First call to EWALD:  gamma=   0.180
 Maximum number of real-space cells 5x 5x 1
 Maximum number of reciprocal cells 2x 2x 7

    FEWALD:  cpu time      0.0030: real time      0.0086


--------------------------------------- Ionic step        1  -------------------------------------------




--------------------------------------- Iteration      1(   1)  ---------------------------------------


    POTLOK:  cpu time      0.1806: real time      0.1868
    SETDIJ:  cpu time      0.4467: real time      0.4503
     EDDAV:  cpu time     17.4160: real time     19.6840
       DOS:  cpu time      0.0046: real time      0.0242
    --------------------------------------------
      LOOP:  cpu time     18.0481: real time     20.3460

 eigenvalue-minimisations  :  8704
 total energy-change (2. order) : 0.4620876E+03  (-0.1725622E+04)
 number of electron      58.0000000 magnetization       0.0000000
 augmentation part       58.0000000 magnetization       0.0000000

 Free energy of the ion-electron system (eV)
  ---------------------------------------------------
  alpha Z        PSCENC =        21.49062660
  Ewald energy   TEWEN  =     13323.12103131
  -Hartree energ DENC   =    -16571.32520580
  -exchange      EXHF   =         0.00000000
  -V(xc)+E(xc)   XCENC  =       131.76728426
  PAW double counting   =      3055.14876058    -3050.95216630
  entropy T*S    EENTRO =        -0.00835642
  eigenvalues    EBANDS =       -94.11706205
  atomic energy  EATOM  =      3646.96265231
  Solvation  Ediel_sol  =         0.00000000
  ---------------------------------------------------
  free energy    TOTEN  =       462.08756449 eV

  energy without entropy =      462.09592091  energy(sigma->0) =      462.09174270


--------------------------------------------------------------------------------------------------------




--------------------------------------- Iteration      1(   2)  ---------------------------------------


     EDDAV:  cpu time     27.8862: real time     30.6891
       DOS:  cpu time      0.0043: real time      0.0226
    --------------------------------------------
      LOOP:  cpu time     27.8905: real time     30.7118

 eigenvalue-minimisations  : 15168
 total energy-change (2. order) :-0.4425143E+03  (-0.4107282E+03)
 number of electron      58.0000000 magnetization       0.0000000
 augmentation part       58.0000000 magnetization       0.0000000

 Free energy of the ion-electron system (eV)
  ---------------------------------------------------
  alpha Z        PSCENC =        21.49062660
  Ewald energy   TEWEN  =     13323.12103131
  -Hartree energ DENC   =    -16571.32520580
  -exchange      EXHF   =         0.00000000
  -V(xc)+E(xc)   XCENC  =       131.76728426
  PAW double counting   =      3055.14876058    -3050.95216630
  entropy T*S    EENTRO =        -0.00000000
  eigenvalues    EBANDS =      -536.63972909
  atomic energy  EATOM  =      3646.96265231
  Solvation  Ediel_sol  =         0.00000000
  ---------------------------------------------------
  free energy    TOTEN  =        19.57325387 eV

  energy without entropy =       19.57325387  energy(sigma->0) =       19.57325387


--------------------------------------------------------------------------------------------------------




--------------------------------------- Iteration      1(   3)  ---------------------------------------


     EDDAV:  cpu time     22.6488: real time     26.1393
       DOS:  cpu time      0.0054: real time      0.0252
    --------------------------------------------
      LOOP:  cpu time     22.6541: real time     26.1645

 eigenvalue-minimisations  : 11840
 total energy-change (2. order) :-0.5822236E+02  (-0.5779425E+02)
 number of electron      58.0000000 magnetization       0.0000000
 augmentation part       58.0000000 magnetization       0.0000000

 Free energy of the ion-electron system (eV)
  ---------------------------------------------------
  alpha Z        PSCENC =        21.49062660
  Ewald energy   TEWEN  =     13323.12103131
  -Hartree energ DENC   =    -16571.32520580
  -exchange      EXHF   =         0.00000000
  -V(xc)+E(xc)   XCENC  =       131.76728426
  PAW double counting   =      3055.14876058    -3050.95216630
  entropy T*S    EENTRO =        -0.00000000
  eigenvalues    EBANDS =      -594.86208622
  atomic energy  EATOM  =      3646.96265231
  Solvation  Ediel_sol  =         0.00000000
  ---------------------------------------------------
  free energy    TOTEN  =       -38.64910326 eV

  energy without entropy =      -38.64910326  energy(sigma->0) =      -38.64910326


--------------------------------------------------------------------------------------------------------




--------------------------------------- Iteration      1(   4)  ---------------------------------------


     EDDAV:  cpu time     22.5849: real time     24.6202
       DOS:  cpu time      0.0048: real time      0.0244
    --------------------------------------------
      LOOP:  cpu time     22.5897: real time     24.6449

 eigenvalue-minimisations  : 12224
 total energy-change (2. order) :-0.1474249E+01  (-0.1473343E+01)
 number of electron      58.0000000 magnetization       0.0000000
 augmentation part       58.0000000 magnetization       0.0000000

 Free energy of the ion-electron system (eV)
  ---------------------------------------------------
  alpha Z        PSCENC =        21.49062660
  Ewald energy   TEWEN  =     13323.12103131
  -Hartree energ DENC   =    -16571.32520580
  -exchange      EXHF   =         0.00000000
  -V(xc)+E(xc)   XCENC  =       131.76728426
  PAW double counting   =      3055.14876058    -3050.95216630
  entropy T*S    EENTRO =        -0.00000000
  eigenvalues    EBANDS =      -596.33633535
  atomic energy  EATOM  =      3646.96265231
  Solvation  Ediel_sol  =         0.00000000
  ---------------------------------------------------
  free energy    TOTEN  =       -40.12335239 eV

  energy without entropy =      -40.12335239  energy(sigma->0) =      -40.12335239


--------------------------------------------------------------------------------------------------------




--------------------------------------- Iteration      1(   5)  ---------------------------------------


     EDDAV:  cpu time     23.0401: real time     25.0169
       DOS:  cpu time      0.0041: real time      0.0227
    CHARGE:  cpu time      0.9429: real time      0.9805
    MIXING:  cpu time      0.0101: real time      0.0708
    --------------------------------------------
      LOOP:  cpu time     23.9975: real time     26.0909

 eigenvalue-minimisations  : 12608
 total energy-change (2. order) :-0.4344106E-01  (-0.4343678E-01)
 number of electron      58.0000000 magnetization       0.0000000
 augmentation part        0.7568552 magnetization       0.0000215

 Broyden mixing:
  rms(total) = 0.23407E+01    rms(broyden)= 0.23407E+01
  rms(prec ) = 0.24225E+01
  weight for this iteration     100.00

 Free energy of the ion-electron system (eV)
  ---------------------------------------------------
  alpha Z        PSCENC =        21.49062660
  Ewald energy   TEWEN  =     13323.12103131
  -Hartree energ DENC   =    -16571.32520580
  -exchange      EXHF   =         0.00000000
  -V(xc)+E(xc)   XCENC  =       131.76728426
  PAW double counting   =      3055.14876058    -3050.95216630
  entropy T*S    EENTRO =        -0.00000000
  eigenvalues    EBANDS =      -596.37977641
  atomic energy  EATOM  =      3646.96265231
  Solvation  Ediel_sol  =         0.00000000
  ---------------------------------------------------
  free energy    TOTEN  =       -40.16679344 eV

  energy without entropy =      -40.16679344  energy(sigma->0) =      -40.16679344


--------------------------------------------------------------------------------------------------------




--------------------------------------- Iteration      1(   6)  ---------------------------------------


    POTLOK:  cpu time      0.1794: real time      0.3685
    SETDIJ:  cpu time      0.4461: real time      0.4546
     EDDAV:  cpu time     19.9179: real time     21.6551
       DOS:  cpu time      0.0042: real time      0.0218
    CHARGE:  cpu time      0.9392: real time      0.9810
    MIXING:  cpu time      0.0157: real time      0.0629
    --------------------------------------------
      LOOP:  cpu time     21.5026: real time     23.5454

 eigenvalue-minimisations  : 10528
 total energy-change (2. order) : 0.9298977E+01  (-0.5540116E+01)
 number of electron      58.0000000 magnetization       0.0000000
 augmentation part        3.6626889 magnetization       0.0005345

 Broyden mixing:
  rms(total) = 0.42786E+01    rms(broyden)= 0.42786E+01
  rms(prec ) = 0.42911E+01
  weight for this iteration     100.00

 eigenvalues of (default mixing * dielectric matrix)
  average eigenvalue GAMMA=   0.0203
  0.0203

 Free energy of the ion-electron system (eV)
  ---------------------------------------------------
  alpha Z        PSCENC =        21.49062660
  Ewald energy   TEWEN  =     13323.12103131
  -Hartree energ DENC   =    -16511.59474411
  -exchange      EXHF   =         0.00000000
  -V(xc)+E(xc)   XCENC  =       134.88207319
  PAW double counting   =      3354.89940340    -3343.14650455
  entropy T*S    EENTRO =        -0.00000000
  eigenvalues    EBANDS =      -657.48235445
  atomic energy  EATOM  =      3646.96265231
  Solvation  Ediel_sol  =         0.00000000
  ---------------------------------------------------
  free energy    TOTEN  =       -30.86781630 eV

  energy without entropy =      -30.86781630  energy(sigma->0) =      -30.86781630


--------------------------------------------------------------------------------------------------------




--------------------------------------- Iteration      1(   7)  ---------------------------------------


    POTLOK:  cpu time      0.1862: real time      0.2246
    SETDIJ:  cpu time      0.4447: real time      0.4537
     EDDAV:  cpu time     21.4459: real time     23.1733
       DOS:  cpu time      0.0055: real time      0.0240
    CHARGE:  cpu time      0.9297: real time      0.9618
    MIXING:  cpu time      0.0179: real time      0.0547
    --------------------------------------------
      LOOP:  cpu time     23.0299: real time     24.8909

 eigenvalue-minimisations  : 11488
 total energy-change (2. order) : 0.1650896E+00  (-0.4938551E+00)
 number of electron      58.0000000 magnetization       0.0000000
 augmentation part        3.1795417 magnetization       0.0000767

 Broyden mixing:
  rms(total) = 0.31158E+01    rms(broyden)= 0.31158E+01
  rms(prec ) = 0.31216E+01
  weight for this iteration     100.00

 eigenvalues of (default mixing * dielectric matrix)
  average eigenvalue GAMMA=   0.6389
  0.8794  0.3985

 Free energy of the ion-electron system (eV)
  ---------------------------------------------------
  alpha Z        PSCENC =        21.49062660
  Ewald energy   TEWEN  =     13323.12103131
  -Hartree energ DENC   =    -16516.24522170
  -exchange      EXHF   =         0.00000000
  -V(xc)+E(xc)   XCENC  =       134.20552441
  PAW double counting   =      3417.59937289    -3408.04127146
  entropy T*S    EENTRO =        -0.00000000
  eigenvalues    EBANDS =      -649.79544109
  atomic energy  EATOM  =      3646.96265231
  Solvation  Ediel_sol  =         0.00000000
  ---------------------------------------------------
  free energy    TOTEN  =       -30.70272673 eV

  energy without entropy =      -30.70272673  energy(sigma->0) =      -30.70272673


--------------------------------------------------------------------------------------------------------




--------------------------------------- Iteration      1(   8)  ---------------------------------------


    POTLOK:  cpu time      0.1715: real time      0.2062
    SETDIJ:  cpu time      0.4450: real time      0.4572
     EDDAV:  cpu time     23.8346: real time     25.7788
       DOS:  cpu time      0.0062: real time      0.0294
    CHARGE:  cpu time      0.9214: real time      0.9623
    MIXING:  cpu time      0.0157: real time      0.0631
    --------------------------------------------
      LOOP:  cpu time     25.3945: real time     27.4987

 eigenvalue-minimisations  : 12960
 total energy-change (2. order) : 0.1134731E+00  (-0.9716351E-01)
 number of electron      58.0000000 magnetization       0.0000000
 augmentation part        3.1601123 magnetization       0.0008933

 Broyden mixing:
  rms(total) = 0.22789E+01    rms(broyden)= 0.22789E+01
  rms(prec ) = 0.22861E+01
  weight for this iteration     100.00

 eigenvalues of (default mixing * dielectric matrix)
  average eigenvalue GAMMA=   0.9287
  0.3261  1.2300  1.2300

 Free energy of the ion-electron system (eV)
  ---------------------------------------------------
  alpha Z        PSCENC =        21.49062660
  Ewald energy   TEWEN  =     13323.12103131
  -Hartree energ DENC   =    -16507.65139593
  -exchange      EXHF   =         0.00000000
  -V(xc)+E(xc)   XCENC  =       135.00248022
  PAW double counting   =      3868.57623632    -3863.52085322
  entropy T*S    EENTRO =        -0.00000000
  eigenvalues    EBANDS =      -654.57003129
  atomic energy  EATOM  =      3646.96265231
  Solvation  Ediel_sol  =         0.00000000
  ---------------------------------------------------
  free energy    TOTEN  =       -30.58925367 eV

  energy without entropy =      -30.58925367  energy(sigma->0) =      -30.58925367


--------------------------------------------------------------------------------------------------------




--------------------------------------- Iteration      1(   9)  ---------------------------------------


    POTLOK:  cpu time      0.1840: real time      0.2293
    SETDIJ:  cpu time      0.4497: real time      0.4599
     EDDAV:  cpu time     20.7802: real time     22.1064
       DOS:  cpu time      0.0043: real time      0.0222
    CHARGE:  cpu time      0.9376: real time      0.9634
    MIXING:  cpu time      0.0129: real time      0.0387
    --------------------------------------------
      LOOP:  cpu time     22.3684: real time     23.8180

 eigenvalue-minimisations  : 11168
 total energy-change (2. order) : 0.3564627E+00  (-0.1494658E+00)
 number of electron      58.0000000 magnetization       0.0000000
 augmentation part        2.7244784 magnetization      -0.0005979

 Broyden mixing:
  rms(total) = 0.62813E+00    rms(broyden)= 0.62813E+00
  rms(prec ) = 0.63157E+00
  weight for this iteration     100.00

 eigenvalues of (default mixing * dielectric matrix)
  average eigenvalue GAMMA=   1.0671
  1.8983  1.3225  0.3349  0.7128

 Free energy of the ion-electron system (eV)
  ---------------------------------------------------
  alpha Z        PSCENC =        21.49062660
  Ewald energy   TEWEN  =     13323.12103131
  -Hartree energ DENC   =    -16507.88974833
  -exchange      EXHF   =         0.00000000
  -V(xc)+E(xc)   XCENC  =       133.38269208
  PAW double counting   =      4261.74186222    -4262.22060566
  entropy T*S    EENTRO =        -0.00000000
  eigenvalues    EBANDS =      -646.82130147
  atomic energy  EATOM  =      3646.96265231
  Solvation  Ediel_sol  =         0.00000000
  ---------------------------------------------------
  free energy    TOTEN  =       -30.23279093 eV

  energy without entropy =      -30.23279093  energy(sigma->0) =      -30.23279093


--------------------------------------------------------------------------------------------------------




--------------------------------------- Iteration      1(  10)  ---------------------------------------


    POTLOK:  cpu time      0.1740: real time      0.2037
    SETDIJ:  cpu time      0.4584: real time      0.4707
     EDDAV:  cpu time     21.7289: real time     23.5871
       DOS:  cpu time      0.0049: real time      0.0273
    CHARGE:  cpu time      0.9431: real time      0.9800
    MIXING:  cpu time      0.0138: real time      0.0363
    --------------------------------------------
      LOOP:  cpu time     23.3229: real time     25.3047

 eigenvalue-minimisations  : 11648
 total energy-change (2. order) : 0.2753622E-01  (-0.2300255E-01)
 number of electron      58.0000000 magnetization       0.0000000
 augmentation part        2.5753637 magnetization       0.0003307

 Broyden mixing:
  rms(total) = 0.23798E+00    rms(broyden)= 0.23798E+00
  rms(prec ) = 0.23935E+00
  weight for this iteration     100.00

 eigenvalues of (default mixing * dielectric matrix)
  average eigenvalue GAMMA=   1.1396
  2.2937  1.2100  1.2100  0.3346  0.6495

 Free energy of the ion-electron system (eV)
  ---------------------------------------------------
  alpha Z        PSCENC =        21.49062660
  Ewald energy   TEWEN  =     13323.12103131
  -Hartree energ DENC   =    -16511.23763017
  -exchange      EXHF   =         0.00000000
  -V(xc)+E(xc)   XCENC  =       133.39552679
  PAW double counting   =      4349.40309252    -4352.02599361
  entropy T*S    EENTRO =        -0.00000000
  eigenvalues    EBANDS =      -641.31456047
  atomic energy  EATOM  =      3646.96265231
  Solvation  Ediel_sol  =         0.00000000
  ---------------------------------------------------
  free energy    TOTEN  =       -30.20525471 eV

  energy without entropy =      -30.20525471  energy(sigma->0) =      -30.20525471


--------------------------------------------------------------------------------------------------------




--------------------------------------- Iteration      1(  11)  ---------------------------------------


    POTLOK:  cpu time      0.1725: real time      0.2136
    SETDIJ:  cpu time      0.4523: real time      0.4654
     EDDAV:  cpu time     24.9331: real time     27.0433
       DOS:  cpu time      0.0044: real time      0.0250
    CHARGE:  cpu time      0.9282: real time      0.9693
    MIXING:  cpu time      0.0100: real time      0.0379
    --------------------------------------------
      LOOP:  cpu time     26.5009: real time     28.7637

 eigenvalue-minimisations  : 13888
 total energy-change (2. order) :-0.1594982E-02  (-0.1455083E-01)
 number of electron      58.0000000 magnetization       0.0000000
 augmentation part        2.4677180 magnetization      -0.0000299

 Broyden mixing:
  rms(total) = 0.95910E-01    rms(broyden)= 0.95894E-01
  rms(prec ) = 0.97004E-01
  weight for this iteration     100.00

 eigenvalues of (default mixing * dielectric matrix)
  average eigenvalue GAMMA=   1.2604
  2.7939  1.5111  1.5111  0.3342  0.7365  0.6755

 Free energy of the ion-electron system (eV)
  ---------------------------------------------------
  alpha Z        PSCENC =        21.49062660
  Ewald energy   TEWEN  =     13323.12103131
  -Hartree energ DENC   =    -16514.92611818
  -exchange      EXHF   =         0.00000000
  -V(xc)+E(xc)   XCENC  =       133.41426494
  PAW double counting   =      4347.65693496    -4350.68466807
  entropy T*S    EENTRO =        -0.00000000
  eigenvalues    EBANDS =      -637.24157358
  atomic energy  EATOM  =      3646.96265231
  Solvation  Ediel_sol  =         0.00000000
  ---------------------------------------------------
  free energy    TOTEN  =       -30.20684970 eV

  energy without entropy =      -30.20684970  energy(sigma->0) =      -30.20684970


--------------------------------------------------------------------------------------------------------




--------------------------------------- Iteration      1(  12)  ---------------------------------------


    POTLOK:  cpu time      0.1773: real time      0.2356
    SETDIJ:  cpu time      0.4446: real time      0.4550
     EDDAV:  cpu time     23.3015: real time     25.3472
       DOS:  cpu time      0.0041: real time      0.0216
    CHARGE:  cpu time      0.9404: real time      0.9677
    MIXING:  cpu time      0.0162: real time      0.1195
    --------------------------------------------
      LOOP:  cpu time     24.8839: real time     27.1374

 eigenvalue-minimisations  : 12640
 total energy-change (2. order) :-0.1796784E-02  (-0.4511792E-02)
 number of electron      58.0000000 magnetization       0.0000000
 augmentation part        2.5268807 magnetization      -0.0001408

 Broyden mixing:
  rms(total) = 0.39160E-01    rms(broyden)= 0.39159E-01
  rms(prec ) = 0.39811E-01
  weight for this iteration     100.00

 eigenvalues of (default mixing * dielectric matrix)
  average eigenvalue GAMMA=   1.1780
  2.5989  1.5447  1.5447  0.3341  0.8795  0.7265  0.6178

 Free energy of the ion-electron system (eV)
  ---------------------------------------------------
  alpha Z        PSCENC =        21.49062660
  Ewald energy   TEWEN  =     13323.12103131
  -Hartree energ DENC   =    -16515.09512700
  -exchange      EXHF   =         0.00000000
  -V(xc)+E(xc)   XCENC  =       133.47080985
  PAW double counting   =      4362.17499819    -4365.30464527
  entropy T*S    EENTRO =        -0.00000000
  eigenvalues    EBANDS =      -637.02899247
  atomic energy  EATOM  =      3646.96265231
  Solvation  Ediel_sol  =         0.00000000
  ---------------------------------------------------
  free energy    TOTEN  =       -30.20864648 eV

  energy without entropy =      -30.20864648  energy(sigma->0) =      -30.20864648


--------------------------------------------------------------------------------------------------------




--------------------------------------- Iteration      1(  13)  ---------------------------------------


    POTLOK:  cpu time      0.1831: real time      0.2366
    SETDIJ:  cpu time      0.4383: real time      0.4525
     EDDAV:  cpu time     21.5106: real time     23.4636
       DOS:  cpu time      0.0065: real time      0.0322
    CHARGE:  cpu time      0.9269: real time      1.0751
    MIXING:  cpu time      0.0113: real time      0.0943
    --------------------------------------------
      LOOP:  cpu time     23.0769: real time     25.3566

 eigenvalue-minimisations  : 11488
 total energy-change (2. order) : 0.4335377E-03  (-0.3769452E-03)
 number of electron      58.0000000 magnetization       0.0000000
 augmentation part        2.5207671 magnetization       0.0000559

 Broyden mixing:
  rms(total) = 0.20431E-01    rms(broyden)= 0.20431E-01
  rms(prec ) = 0.20710E-01
  weight for this iteration     100.00

 eigenvalues of (default mixing * dielectric matrix)
  average eigenvalue GAMMA=   1.1396
  2.5859  1.5487  1.5487  0.3342  0.9683  0.8420  0.6447  0.6447

 Free energy of the ion-electron system (eV)
  ---------------------------------------------------
  alpha Z        PSCENC =        21.49062660
  Ewald energy   TEWEN  =     13323.12103131
  -Hartree energ DENC   =    -16514.88341715
  -exchange      EXHF   =         0.00000000
  -V(xc)+E(xc)   XCENC  =       133.41793654
  PAW double counting   =      4353.35404215    -4356.38111827
  entropy T*S    EENTRO =        -0.00000000
  eigenvalues    EBANDS =      -637.28996645
  atomic energy  EATOM  =      3646.96265231
  Solvation  Ediel_sol  =         0.00000000
  ---------------------------------------------------
  free energy    TOTEN  =       -30.20821294 eV

  energy without entropy =      -30.20821294  energy(sigma->0) =      -30.20821294


--------------------------------------------------------------------------------------------------------




--------------------------------------- Iteration      1(  14)  ---------------------------------------


    POTLOK:  cpu time      0.1770: real time      0.2244
    SETDIJ:  cpu time      0.4488: real time      0.4584
     EDDAV:  cpu time     22.8237: real time     24.9401
       DOS:  cpu time      0.0094: real time      0.0373
    CHARGE:  cpu time      0.9373: real time      0.9830
    MIXING:  cpu time      0.0123: real time      0.0584
    --------------------------------------------
      LOOP:  cpu time     24.4085: real time     26.7001

 eigenvalue-minimisations  : 12288
 total energy-change (2. order) :-0.4253607E-03  (-0.5565471E-04)
 number of electron      58.0000000 magnetization       0.0000000
 augmentation part        2.5113980 magnetization       0.0000059

 Broyden mixing:
  rms(total) = 0.10811E-01    rms(broyden)= 0.10811E-01
  rms(prec ) = 0.10860E-01
  weight for this iteration     100.00

 eigenvalues of (default mixing * dielectric matrix)
  average eigenvalue GAMMA=   1.1855
  2.7932  1.6477  1.6477  0.3342  1.0862  1.0862  0.7219  0.7219  0.6308

 Free energy of the ion-electron system (eV)
  ---------------------------------------------------
  alpha Z        PSCENC =        21.49062660
  Ewald energy   TEWEN  =     13323.12103131
  -Hartree energ DENC   =    -16514.98939522
  -exchange      EXHF   =         0.00000000
  -V(xc)+E(xc)   XCENC  =       133.40085161
  PAW double counting   =      4350.99045444    -4354.01749283
  entropy T*S    EENTRO =        -0.00000000
  eigenvalues    EBANDS =      -637.16736653
  atomic energy  EATOM  =      3646.96265231
  Solvation  Ediel_sol  =         0.00000000
  ---------------------------------------------------
  free energy    TOTEN  =       -30.20863830 eV

  energy without entropy =      -30.20863830  energy(sigma->0) =      -30.20863830


--------------------------------------------------------------------------------------------------------




--------------------------------------- Iteration      1(  15)  ---------------------------------------


    POTLOK:  cpu time      0.1747: real time      0.2263
    SETDIJ:  cpu time      0.4485: real time      0.4598
     EDDAV:  cpu time     25.7136: real time     28.1477
       DOS:  cpu time      0.0042: real time      0.0230
    CHARGE:  cpu time      0.9210: real time      0.9468
    MIXING:  cpu time      0.0157: real time      0.0404
    --------------------------------------------
      LOOP:  cpu time     27.2780: real time     29.8465

 eigenvalue-minimisations  : 14368
 total energy-change (2. order) :-0.2546301E-03  (-0.1738818E-04)
 number of electron      58.0000000 magnetization       0.0000000
 augmentation part        2.5116461 magnetization      -0.0000281

 Broyden mixing:
  rms(total) = 0.44000E-02    rms(broyden)= 0.43995E-02
  rms(prec ) = 0.44327E-02
  weight for this iteration     100.00

 eigenvalues of (default mixing * dielectric matrix)
  average eigenvalue GAMMA=   1.2672
  3.1015  2.0144  1.5789  1.5789  0.3342  1.0454  0.9077  0.6297  0.7404  0.7404

 Free energy of the ion-electron system (eV)
  ---------------------------------------------------
  alpha Z        PSCENC =        21.49062660
  Ewald energy   TEWEN  =     13323.12103131
  -Hartree energ DENC   =    -16514.93073339
  -exchange      EXHF   =         0.00000000
  -V(xc)+E(xc)   XCENC  =       133.40659314
  PAW double counting   =      4351.28968374    -4354.33997229
  entropy T*S    EENTRO =        -0.00000000
  eigenvalues    EBANDS =      -637.20877435
  atomic energy  EATOM  =      3646.96265231
  Solvation  Ediel_sol  =         0.00000000
  ---------------------------------------------------
  free energy    TOTEN  =       -30.20889293 eV

  energy without entropy =      -30.20889293  energy(sigma->0) =      -30.20889293


--------------------------------------------------------------------------------------------------------




--------------------------------------- Iteration      1(  16)  ---------------------------------------


    POTLOK:  cpu time      0.1751: real time      0.2226
    SETDIJ:  cpu time      0.4457: real time      0.4552
     EDDAV:  cpu time     26.2409: real time     28.6435
       DOS:  cpu time      0.0047: real time      0.0272
    CHARGE:  cpu time      0.9429: real time      0.9884
    MIXING:  cpu time      0.0152: real time      0.0425
    --------------------------------------------
      LOOP:  cpu time     27.8245: real time     30.3840

 eigenvalue-minimisations  : 14688
 total energy-change (2. order) :-0.1146531E-03  (-0.3280407E-05)
 number of electron      58.0000000 magnetization       0.0000000
 augmentation part        2.5117478 magnetization       0.0000350

 Broyden mixing:
  rms(total) = 0.17164E-02    rms(broyden)= 0.17162E-02
  rms(prec ) = 0.17502E-02
  weight for this iteration     100.00

 eigenvalues of (default mixing * dielectric matrix)
  average eigenvalue GAMMA=   1.2608
  3.0886  2.3202  1.6350  1.6350  0.3342  1.0299  1.0299  0.7562  0.7562  0.6419
  0.6419

 Free energy of the ion-electron system (eV)
  ---------------------------------------------------
  alpha Z        PSCENC =        21.49062660
  Ewald energy   TEWEN  =     13323.12103131
  -Hartree energ DENC   =    -16514.80786624
  -exchange      EXHF   =         0.00000000
  -V(xc)+E(xc)   XCENC  =       133.39949446
  PAW double counting   =      4349.35659961    -4352.40730173
  entropy T*S    EENTRO =        -0.00000000
  eigenvalues    EBANDS =      -637.32424392
  atomic energy  EATOM  =      3646.96265231
  Solvation  Ediel_sol  =         0.00000000
  ---------------------------------------------------
  free energy    TOTEN  =       -30.20900759 eV

  energy without entropy =      -30.20900759  energy(sigma->0) =      -30.20900759


--------------------------------------------------------------------------------------------------------




--------------------------------------- Iteration      1(  17)  ---------------------------------------


    POTLOK:  cpu time      0.1752: real time      0.2212
    SETDIJ:  cpu time      0.4413: real time      0.4495
     EDDAV:  cpu time     23.2119: real time     25.2610
       DOS:  cpu time      0.0040: real time      0.0212
    CHARGE:  cpu time      0.9448: real time      0.9852
    MIXING:  cpu time      0.0164: real time      0.0453
    --------------------------------------------
      LOOP:  cpu time     24.7931: real time     26.9757

 eigenvalue-minimisations  : 12608
 total energy-change (2. order) :-0.3962444E-04  (-0.3572158E-06)
 number of electron      58.0000000 magnetization       0.0000000
 augmentation part        2.5110605 magnetization      -0.0000192

 Broyden mixing:
  rms(total) = 0.59017E-03    rms(broyden)= 0.58996E-03
  rms(prec ) = 0.65098E-03
  weight for this iteration     100.00

 eigenvalues of (default mixing * dielectric matrix)
  average eigenvalue GAMMA=   1.2388
  3.1709  2.3271  1.6046  1.6046  1.2670  0.3342  0.8605  0.8605  0.7895  0.7895
  0.6286  0.6286

 Free energy of the ion-electron system (eV)
  ---------------------------------------------------
  alpha Z        PSCENC =        21.49062660
  Ewald energy   TEWEN  =     13323.12103131
  -Hartree energ DENC   =    -16514.76043241
  -exchange      EXHF   =         0.00000000
  -V(xc)+E(xc)   XCENC  =       133.39750097
  PAW double counting   =      4348.87157666    -4351.92372682
  entropy T*S    EENTRO =        -0.00000000
  eigenvalues    EBANDS =      -637.36827584
  atomic energy  EATOM  =      3646.96265231
  Solvation  Ediel_sol  =         0.00000000
  ---------------------------------------------------
  free energy    TOTEN  =       -30.20904721 eV

  energy without entropy =      -30.20904721  energy(sigma->0) =      -30.20904721


--------------------------------------------------------------------------------------------------------




--------------------------------------- Iteration      1(  18)  ---------------------------------------


    POTLOK:  cpu time      0.1743: real time      0.2129
    SETDIJ:  cpu time      0.4409: real time      0.4484
     EDDAV:  cpu time     23.0038: real time     24.7652
       DOS:  cpu time      0.0036: real time      0.0250
    CHARGE:  cpu time      0.9488: real time      0.9752
    MIXING:  cpu time      0.0150: real time      0.0323
    --------------------------------------------
      LOOP:  cpu time     24.5865: real time     26.4595

 eigenvalue-minimisations  : 12512
 total energy-change (2. order) :-0.3468919E-04  (-0.1918964E-06)
 number of electron      58.0000000 magnetization       0.0000000
 augmentation part        2.5112258 magnetization      -0.0000046

 Broyden mixing:
  rms(total) = 0.31484E-03    rms(broyden)= 0.31477E-03
  rms(prec ) = 0.38424E-03
  weight for this iteration     100.00

 eigenvalues of (default mixing * dielectric matrix)
  average eigenvalue GAMMA=   1.2079
  3.2186  2.3579  1.6064  1.6064  1.2979  0.3342  0.9052  0.9052  0.6173  0.7359
  0.7359  0.6908  0.6908

 Free energy of the ion-electron system (eV)
  ---------------------------------------------------
  alpha Z        PSCENC =        21.49062660
  Ewald energy   TEWEN  =     13323.12103131
  -Hartree energ DENC   =    -16514.70835918
  -exchange      EXHF   =         0.00000000
  -V(xc)+E(xc)   XCENC  =       133.39781510
  PAW double counting   =      4348.80393796    -4351.85795669
  entropy T*S    EENTRO =        -0.00000000
  eigenvalues    EBANDS =      -637.41882932
  atomic energy  EATOM  =      3646.96265231
  Solvation  Ediel_sol  =         0.00000000
  ---------------------------------------------------
  free energy    TOTEN  =       -30.20908190 eV

  energy without entropy =      -30.20908190  energy(sigma->0) =      -30.20908190


--------------------------------------------------------------------------------------------------------




--------------------------------------- Iteration      1(  19)  ---------------------------------------


    POTLOK:  cpu time      0.1701: real time      0.2093
    SETDIJ:  cpu time      0.4459: real time      0.4543
     EDDAV:  cpu time     22.3219: real time     24.1833
       DOS:  cpu time      0.0047: real time      0.0273
    CHARGE:  cpu time      0.9510: real time      0.9861
    MIXING:  cpu time      0.0099: real time      0.0438
    --------------------------------------------
      LOOP:  cpu time     23.9036: real time     25.9039

 eigenvalue-minimisations  : 12064
 total energy-change (2. order) :-0.3025536E-04  (-0.6911689E-07)
 number of electron      58.0000000 magnetization       0.0000000
 augmentation part        2.5111964 magnetization      -0.0000040

 Broyden mixing:
  rms(total) = 0.21746E-03    rms(broyden)= 0.21740E-03
  rms(prec ) = 0.28112E-03
  weight for this iteration     100.00

 eigenvalues of (default mixing * dielectric matrix)
  average eigenvalue GAMMA=   1.2656
  3.3945  2.5715  1.9783  1.6150  1.6150  1.1938  0.3342  0.8609  0.8609  0.7394
  0.7394  0.6181  0.5987  0.5987

 Free energy of the ion-electron system (eV)
  ---------------------------------------------------
  alpha Z        PSCENC =        21.49062660
  Ewald energy   TEWEN  =     13323.12103131
  -Hartree energ DENC   =    -16514.66830425
  -exchange      EXHF   =         0.00000000
  -V(xc)+E(xc)   XCENC  =       133.39744388
  PAW double counting   =      4348.73235422    -4351.78768254
  entropy T*S    EENTRO =        -0.00000000
  eigenvalues    EBANDS =      -637.45723370
  atomic energy  EATOM  =      3646.96265231
  Solvation  Ediel_sol  =         0.00000000
  ---------------------------------------------------
  free energy    TOTEN  =       -30.20911215 eV

  energy without entropy =      -30.20911215  energy(sigma->0) =      -30.20911215


--------------------------------------------------------------------------------------------------------




--------------------------------------- Iteration      1(  20)  ---------------------------------------


    POTLOK:  cpu time      0.1717: real time      0.2071
    SETDIJ:  cpu time      0.4417: real time      0.4512
     EDDAV:  cpu time     22.2705: real time     24.0850
       DOS:  cpu time      0.0087: real time      0.0345
    CHARGE:  cpu time      0.9244: real time      0.9554
    MIXING:  cpu time      0.0162: real time      0.0494
    --------------------------------------------
      LOOP:  cpu time     23.8330: real time     25.7827

 eigenvalue-minimisations  : 12064
 total energy-change (2. order) :-0.3574182E-04  (-0.9757254E-07)
 number of electron      58.0000000 magnetization       0.0000000
 augmentation part        2.5111385 magnetization      -0.0000053

 Broyden mixing:
  rms(total) = 0.24877E-03    rms(broyden)= 0.24873E-03
  rms(prec ) = 0.27917E-03
  weight for this iteration     100.00

 eigenvalues of (default mixing * dielectric matrix)
  average eigenvalue GAMMA=   1.2617
  3.2730  2.7339  2.1891  1.6147  1.6147  1.3327  0.3342  0.8823  0.8823  0.7772
  0.7772  0.6694  0.6694  0.5880  0.5880

 Free energy of the ion-electron system (eV)
  ---------------------------------------------------
  alpha Z        PSCENC =        21.49062660
  Ewald energy   TEWEN  =     13323.12103131
  -Hartree energ DENC   =    -16514.61292833
  -exchange      EXHF   =         0.00000000
  -V(xc)+E(xc)   XCENC  =       133.39691063
  PAW double counting   =      4348.69783155    -4351.75409317
  entropy T*S    EENTRO =        -0.00000000
  eigenvalues    EBANDS =      -637.51117880
  atomic energy  EATOM  =      3646.96265231
  Solvation  Ediel_sol  =         0.00000000
  ---------------------------------------------------
  free energy    TOTEN  =       -30.20914790 eV

  energy without entropy =      -30.20914790  energy(sigma->0) =      -30.20914790


--------------------------------------------------------------------------------------------------------




--------------------------------------- Iteration      1(  21)  ---------------------------------------


    POTLOK:  cpu time      0.1777: real time      0.2210
    SETDIJ:  cpu time      0.4435: real time      0.4509
     EDDAV:  cpu time     20.4700: real time     22.1825
       DOS:  cpu time      0.0041: real time      0.0218
    CHARGE:  cpu time      0.9263: real time      0.9552
    MIXING:  cpu time      0.0139: real time      0.0417
    --------------------------------------------
      LOOP:  cpu time     22.0356: real time     23.8729

 eigenvalue-minimisations  : 10656
 total energy-change (2. order) :-0.1747440E-04  (-0.2819063E-07)
 number of electron      58.0000000 magnetization       0.0000000
 augmentation part        2.5111041 magnetization      -0.0000091

 Broyden mixing:
  rms(total) = 0.10145E-03    rms(broyden)= 0.10136E-03
  rms(prec ) = 0.14136E-03
  weight for this iteration     100.00

 eigenvalues of (default mixing * dielectric matrix)
  average eigenvalue GAMMA=   1.2710
  3.3501  2.7675  2.5480  1.6563  1.6563  1.1219  1.1219  0.3342  0.8512  0.8512
  0.7673  0.7673  0.6678  0.6678  0.5989  0.6087

 Free energy of the ion-electron system (eV)
  ---------------------------------------------------
  alpha Z        PSCENC =        21.49062660
  Ewald energy   TEWEN  =     13323.12103131
  -Hartree energ DENC   =    -16514.57844797
  -exchange      EXHF   =         0.00000000
  -V(xc)+E(xc)   XCENC  =       133.39661235
  PAW double counting   =      4348.76887469    -4351.82479417
  entropy T*S    EENTRO =        -0.00000000
  eigenvalues    EBANDS =      -637.54572051
  atomic energy  EATOM  =      3646.96265231
  Solvation  Ediel_sol  =         0.00000000
  ---------------------------------------------------
  free energy    TOTEN  =       -30.20916537 eV

  energy without entropy =      -30.20916537  energy(sigma->0) =      -30.20916537


--------------------------------------------------------------------------------------------------------




--------------------------------------- Iteration      1(  22)  ---------------------------------------


    POTLOK:  cpu time      0.2127: real time      0.2478
    SETDIJ:  cpu time      0.4415: real time      0.4489
     EDDAV:  cpu time     21.1035: real time     22.3489
       DOS:  cpu time      0.0054: real time      0.0267
    CHARGE:  cpu time      0.9213: real time      0.9506
    MIXING:  cpu time      0.0153: real time      0.0403
    --------------------------------------------
      LOOP:  cpu time     22.6996: real time     24.0630

 eigenvalue-minimisations  : 11328
 total energy-change (2. order) :-0.2482833E-04  (-0.1230336E-06)
 number of electron      58.0000000 magnetization       0.0000000
 augmentation part        2.5112371 magnetization      -0.0000042

 Broyden mixing:
  rms(total) = 0.14419E-03    rms(broyden)= 0.14412E-03
  rms(prec ) = 0.15278E-03
  weight for this iteration     100.00

[...]
     44       3.1573      0.00000
     45       3.2554      0.00000
     46       3.2952      0.00000
     47       3.4164      0.00000
     48       3.4590      0.00000
     49       3.5664      0.00000
     50       3.7484      0.00000
     51       3.8136      0.00000
     52       4.0147      0.00000
     53       4.0241      0.00000
     54       4.0921      0.00000
     55       4.1634      0.00000
     56       4.3569      0.00000
     57       4.4271      0.00000
     58       4.5504      0.00000
     59       4.7440      0.00000
     60       4.7898      0.00000
     61       4.8806      0.00000
     62       4.9507      0.00000
     63       5.1380      0.00000
     64       5.2058      0.00000

 k-point    33 :       0.2857    0.2857    0.0000
  band No.  band energies     occupation 
      1     -19.9897      1.00000
      2     -19.8369      1.00000
      3     -19.5616      1.00000
      4     -19.4607      1.00000
      5     -19.3985      1.00000
      6     -19.3816      1.00000
      7     -12.1872      1.00000
      8     -12.1325      1.00000
      9     -12.0198      1.00000
     10     -12.0121      1.00000
     11     -12.0011      1.00000
     12     -10.0348      1.00000
     13      -9.5102      1.00000
     14      -9.1506      1.00000
     15      -8.9929      1.00000
     16      -8.8288      1.00000
     17      -8.3765      1.00000
     18      -8.1052      1.00000
     19      -8.0624      1.00000
     20      -7.9479      1.00000
     21      -7.6382      1.00000
     22      -7.3403      1.00000
     23      -7.0513      1.00000
     24      -6.9728      1.00000
     25      -6.9174      1.00000
     26      -6.7113      1.00000
     27      -6.6308      1.00000
     28      -6.3082      1.00000
     29      -6.2486      1.00000
     30      -4.2106      0.00000
     31      -4.1739      0.00000
     32      -4.1228      0.00000
     33      -4.0042      0.00000
     34      -3.9254      0.00000
     35       0.7871      0.00000
     36       1.4810      0.00000
     37       1.7992      0.00000
     38       2.1516      0.00000
     39       2.1787      0.00000
     40       2.3559      0.00000
     41       2.8421      0.00000
     42       2.8768      0.00000
     43       2.8841      0.00000
     44       3.0983      0.00000
     45       3.2547      0.00000
     46       3.3581      0.00000
     47       3.4105      0.00000
     48       3.6311      0.00000
     49       3.6391      0.00000
     50       3.6456      0.00000
     51       3.7915      0.00000
     52       3.8806      0.00000
     53       3.9104      0.00000
     54       4.1213      0.00000
     55       4.1571      0.00000
     56       4.2915      0.00000
     57       4.4735      0.00000
     58       4.4835      0.00000
     59       4.7283      0.00000
     60       4.7969      0.00000
     61       4.8168      0.00000
     62       4.8962      0.00000
     63       5.1873      0.00000
     64       5.2657      0.00000

 k-point    34 :       0.3571    0.2857    0.0000
  band No.  band energies     occupation 
      1     -19.9447      1.00000
      2     -19.8801      1.00000
      3     -19.5663      1.00000
      4     -19.4528      1.00000
      5     -19.4031      1.00000
      6     -19.3844      1.00000
      7     -12.1895      1.00000
      8     -12.1322      1.00000
      9     -12.0181      1.00000
     10     -12.0088      1.00000
     11     -12.0048      1.00000
     12     -10.0104      1.00000
     13      -9.5251      1.00000
     14      -9.1400      1.00000
     15      -8.9766      1.00000
     16      -8.8617      1.00000
     17      -8.3624      1.00000
     18      -8.1138      1.00000
     19      -8.0826      1.00000
     20      -7.9189      1.00000
     21      -7.6511      1.00000
     22      -7.3448      1.00000
     23      -7.0602      1.00000
     24      -6.9842      1.00000
     25      -6.8969      1.00000
     26      -6.7154      1.00000
     27      -6.6249      1.00000
     28      -6.3099      1.00000
     29      -6.2409      1.00000
     30      -4.2068      0.00000
     31      -4.1723      0.00000
     32      -4.1252      0.00000
     33      -4.0051      0.00000
     34      -3.9240      0.00000
     35       0.7823      0.00000
     36       1.4610      0.00000
     37       1.9175      0.00000
     38       2.0309      0.00000
     39       2.1724      0.00000
     40       2.5780      0.00000
     41       2.6155      0.00000
     42       2.8665      0.00000
     43       3.0820      0.00000
     44       3.1845      0.00000
     45       3.2622      0.00000
     46       3.3000      0.00000
     47       3.4425      0.00000
     48       3.4743      0.00000
     49       3.5698      0.00000
     50       3.6131      0.00000
     51       3.7254      0.00000
     52       3.8813      0.00000
     53       3.9862      0.00000
     54       4.0372      0.00000
     55       4.1446      0.00000
     56       4.1764      0.00000
     57       4.3949      0.00000
     58       4.5634      0.00000
     59       4.6397      0.00000
     60       4.7863      0.00000
     61       4.8397      0.00000
     62       5.0281      0.00000
     63       5.1015      0.00000
     64       5.2821      0.00000


--------------------------------------------------------------------------------------------------------


 soft charge-density along one line, spin component           1
         0         1         2         3         4         5         6         7         8         9
 total charge-density along one line
 
 soft charge-density along one line, spin component           2
         0         1         2         3         4         5         6         7         8         9
 total charge-density along one line
 
 pseudopotential strength for first ion, spin component:           1
-16.626   0.018   0.000  -0.000   0.000 -16.924   0.014   0.000
  0.018 -16.612   0.000  -0.000  -0.000   0.014 -16.913   0.000
  0.000   0.000 -16.647  -0.000  -0.000   0.000   0.000 -16.942
 -0.000  -0.000  -0.000 -16.612  -0.018  -0.000  -0.000  -0.000
  0.000  -0.000  -0.000  -0.018 -16.626   0.000  -0.000  -0.000
-16.924   0.014   0.000  -0.000   0.000 -17.203   0.010   0.000
  0.014 -16.913   0.000  -0.000  -0.000   0.010 -17.196   0.000
  0.000   0.000 -16.942  -0.000  -0.000   0.000   0.000 -17.218
 -0.000  -0.000  -0.000 -16.913  -0.014  -0.000  -0.000  -0.000
  0.000  -0.000  -0.000  -0.014 -16.924   0.000  -0.000  -0.000
  0.000  -0.000   0.001   0.000  -0.000   0.000  -0.000   0.001
  0.000  -0.000   0.001   0.000  -0.000   0.000  -0.000   0.001
 -0.000   0.000  -0.000  -0.000   0.002  -0.000   0.000  -0.000
 -0.000   0.000   0.000  -0.000  -0.000  -0.000   0.000   0.000
  0.002  -0.000   0.000   0.000   0.000   0.002  -0.000   0.000
 -0.000   0.000  -0.000  -0.000   0.003  -0.000   0.000  -0.000
 -0.000   0.000   0.000  -0.000  -0.000  -0.000   0.000   0.000
  0.003  -0.000   0.000   0.000   0.000   0.003  -0.000   0.000
 pseudopotential strength for first ion, spin component:           2
-11.034  -0.467   0.000   0.001   0.000 -11.369  -0.471   0.000
 -0.467 -11.380   0.000  -0.000   0.001  -0.471 -11.718   0.000
  0.000   0.000 -10.674  -0.000  -0.000   0.000   0.000 -11.006
  0.001  -0.000  -0.000 -11.380   0.467   0.001  -0.000  -0.000
  0.000   0.001  -0.000   0.467 -11.034   0.000   0.001  -0.000
-11.369  -0.471   0.000   0.001   0.000 -11.655  -0.480   0.000
 -0.471 -11.718   0.000  -0.000   0.001  -0.480 -12.010   0.000
  0.000   0.000 -11.006  -0.000  -0.000   0.000   0.000 -11.285
  0.001  -0.000  -0.000 -11.718   0.471   0.001  -0.000  -0.000
  0.000   0.001  -0.000   0.471 -11.369   0.000   0.001  -0.000
  0.000  -0.000  -0.001   0.000  -0.000   0.000  -0.000  -0.001
  0.000  -0.000  -0.002   0.000  -0.000   0.000  -0.000  -0.002
  0.000   0.000  -0.000   0.000  -0.001   0.000   0.000  -0.000
  0.000   0.000   0.000  -0.000   0.000   0.000   0.000   0.000
 -0.001   0.000   0.000   0.000  -0.000  -0.000   0.000   0.000
  0.000   0.000  -0.000   0.000  -0.001   0.000   0.000  -0.000
  0.000   0.000   0.000  -0.000   0.000   0.000   0.000   0.000
 -0.001   0.000   0.000   0.000  -0.000  -0.000   0.000   0.000
 total augmentation occupancy for first ion, spin component:           1
  7.059   2.297  -0.000  -0.004  -0.000  -4.878  -2.241   0.000   0.004  -0.000  -0.000  -0.000   0.001  -0.000  -0.084   0.000
  2.297   8.598   0.000   0.000  -0.004  -2.241  -6.368  -0.000  -0.000   0.004   0.000   0.000   0.001  -0.000   0.007   0.000
 -0.000   0.000   5.305   0.000  -0.000  -0.000  -0.000  -3.160  -0.000   0.000   0.047  -0.003   0.000   0.000   0.000  -0.000
 -0.004   0.000   0.000   8.598  -2.297   0.004   0.000  -0.000  -6.368   2.241   0.000   0.000  -0.007  -0.000   0.001  -0.000
  0.000  -0.004  -0.000  -2.297   7.059   0.000   0.004   0.000   2.241  -4.878  -0.000   0.000  -0.084  -0.000  -0.001   0.006
 -4.878  -2.241  -0.000   0.004   0.000   3.940   2.313  -0.000  -0.004   0.000   0.000  -0.000  -0.001  -0.000   0.094   0.000
 -2.241  -6.368  -0.000   0.000   0.004   2.313   5.474   0.000   0.000  -0.004   0.000   0.000  -0.002   0.000  -0.010  -0.000
  0.000  -0.000  -3.160  -0.000   0.000  -0.000   0.000   2.157   0.000  -0.000  -0.055   0.006  -0.000  -0.000  -0.000   0.000
  0.004  -0.000  -0.000  -6.368   2.241  -0.004   0.000   0.000   5.474  -2.313  -0.000  -0.000   0.010   0.000  -0.002   0.000
 -0.000   0.004   0.000   2.241  -4.878   0.000  -0.004  -0.000  -2.313   3.940   0.000  -0.000   0.094   0.000   0.001  -0.009
 -0.000   0.000   0.047   0.000  -0.000   0.000   0.000  -0.055   0.000   0.000   1.510  -0.146   0.000  -0.001   0.000   0.000
 -0.000   0.000  -0.003   0.000   0.000   0.000   0.000   0.006   0.000  -0.000  -0.146   0.031   0.000   0.000   0.000  -0.000
  0.001   0.001   0.000  -0.007  -0.084  -0.001  -0.002  -0.000   0.010   0.094   0.000   0.000   0.229   0.000  -0.000  -0.021
 -0.000   0.000   0.000  -0.000  -0.000   0.000   0.000  -0.000   0.000   0.000  -0.001   0.000  -0.000   0.222   0.000  -0.000
 -0.084   0.007   0.000   0.001  -0.001   0.094  -0.010  -0.000  -0.002   0.001   0.000  -0.000   0.000  -0.000   0.229  -0.000
  0.000   0.000  -0.000  -0.000   0.006   0.000  -0.000   0.000   0.000  -0.009   0.000   0.000  -0.021   0.000  -0.000   0.003
 -0.000   0.000   0.000   0.000  -0.000   0.000   0.000  -0.000  -0.000   0.000   0.000  -0.000   0.000  -0.019  -0.000   0.000
  0.006   0.000   0.000   0.000  -0.000  -0.009  -0.000   0.000  -0.000  -0.000   0.000   0.000   0.000  -0.000  -0.021   0.000
 total augmentation occupancy for first ion, spin component:           2
  6.715   2.011  -0.000  -0.003  -0.000  -4.350  -1.849  -0.000   0.003   0.000  -0.000  -0.000   0.001   0.000  -0.035   0.000
  2.011   8.075   0.000   0.000  -0.003  -1.850  -5.608  -0.000   0.000   0.003   0.000   0.000   0.001   0.000   0.015   0.000
 -0.000   0.000   5.180   0.000  -0.000   0.000  -0.000  -2.938  -0.000   0.000   0.008   0.004   0.000  -0.000   0.000   0.000
 -0.003   0.000   0.000   8.075  -2.011   0.003  -0.000  -0.000  -5.608   1.850   0.000   0.000  -0.015   0.000   0.001   0.000
  0.000  -0.003  -0.000  -2.011   6.715  -0.000   0.003   0.000   1.849  -4.350  -0.000  -0.000  -0.035   0.000  -0.001  -0.001
 -4.350  -1.850   0.000   0.003  -0.000   2.916   1.573  -0.000  -0.003   0.000   0.000   0.000  -0.000   0.000   0.021  -0.000
 -1.849  -5.608  -0.000  -0.000   0.003   1.573   3.986   0.000   0.000  -0.003   0.000   0.000  -0.001   0.000  -0.010  -0.000
 -0.000  -0.000  -2.938  -0.000   0.000  -0.000   0.000   1.718   0.000  -0.000  -0.003  -0.003  -0.000   0.000  -0.000  -0.000
  0.003   0.000  -0.000  -5.608   1.849  -0.003   0.000   0.000   3.986  -1.573  -0.000  -0.000   0.010  -0.000  -0.001  -0.000
  0.000   0.003   0.000   1.850  -4.350   0.000  -0.003  -0.000  -1.573   2.916   0.000   0.000   0.021  -0.000   0.000   0.001
 -0.000   0.000   0.008   0.000  -0.000   0.000   0.000  -0.003  -0.000   0.000  -0.257   0.105   0.000   0.000   0.000  -0.000
 -0.000   0.000   0.004   0.000  -0.000   0.000   0.000  -0.003   0.000   0.000   0.105  -0.012   0.000  -0.000   0.000   0.000
  0.001   0.001   0.000  -0.015  -0.035  -0.000  -0.001  -0.000   0.010   0.021   0.000   0.000  -0.005  -0.000  -0.000   0.007
  0.000   0.000  -0.000   0.000   0.000   0.000   0.000   0.000  -0.000  -0.000   0.000  -0.000  -0.000  -0.003  -0.000   0.000
 -0.035   0.015   0.000   0.001  -0.001   0.021  -0.010  -0.000  -0.001   0.000  -0.000  -0.000   0.000  -0.000  -0.005   0.000
  0.000   0.000   0.000   0.000  -0.001  -0.000  -0.000  -0.000  -0.000   0.001   0.000   0.000   0.007  -0.000   0.000  -0.001
 -0.000   0.000   0.000  -0.000  -0.000   0.000   0.000  -0.000  -0.000   0.000  -0.000   0.000  -0.000   0.006   0.000   0.000
 -0.001  -0.000   0.000   0.000  -0.000   0.001   0.000  -0.000  -0.000   0.000   0.000  -0.000  -0.000  -0.000   0.007  -0.000


------------------------ aborting loop because EDIFF is reached ----------------------------------------


    CHARGE:  cpu time      0.9375: real time      0.9575
    FORLOC:  cpu time      0.0050: real time      0.0054
    FORNL :  cpu time      2.3121: real time      2.3555
    STRESS:  cpu time      8.6571: real time      8.7635
    FORCOR:  cpu time      0.1524: real time      0.1978
    FORHAR:  cpu time      0.0210: real time      0.0231
    MIXING:  cpu time      0.0115: real time      0.0389
    OFIELD:  cpu time      0.0008: real time      0.0021

  DFT-D2 method for vdW energy calculation
  -------------------------------------------------------------------
  Number of pair interactions contributing to vdW energy:   19954
  Edisp (eV):   -0.79206
    FORVDW:  cpu time      0.0033: real time      0.0069

  FORCE on cell =-STRESS in cart. coord.  units (eV):
  Direction    XX          YY          ZZ          XY          YZ          ZX
  --------------------------------------------------------------------------------------
  Alpha Z    21.49063    21.49063    21.49063
  Ewald   15197.18806 15197.18529-17071.25382    -0.00024    -0.00072     0.00317
  Hartree 15936.87038 15936.87000-15359.27473     0.00082     0.00005    -0.00017
  E(xc)    -236.12707  -236.12707  -236.42590     0.00000     0.00000    -0.00000
  Local  -32164.42846-32164.42467 31395.06911    -0.00097     0.00035    -0.00207
  n-local   453.14999   453.54419   452.91549    -0.27304     0.13189    -0.09300
  augment   -34.84143   -34.84148   -35.32236     0.00003     0.00005    -0.00013
  Kinetic   826.54396   826.19776   832.72618     0.11391    -0.02394    -0.05469
  Fock        0.00000     0.00000     0.00000     0.00000     0.00000     0.00000
  vdW        -1.02108    -1.02106    -0.01907    -0.00000     0.00000    -0.00000
  -------------------------------------------------------------------------------------
  Total      -1.15072    -1.15072    -0.09447     0.00000    -0.00000     0.00000
  in kB      -1.93076    -1.93076    -0.15850     0.00000    -0.00000     0.00000
  external pressure =       -1.34 kB  Pullay stress =        0.00 kB


 VOLUME and BASIS-vectors are now :
 -----------------------------------------------------------------------------
  energy-cutoff  :      500.00
  volume of cell :      954.89
      direct lattice vectors                 reciprocal lattice vectors
     6.181820000  0.000000000  0.000000000     0.161764658  0.093394924  0.000000000
    -3.090910000  5.353610000  0.000000000     0.000000000  0.186789848  0.000000000
     0.000000000  0.000000000 28.852900000     0.000000000  0.000000000  0.034658561

  length of vectors
     6.181820000  6.181817262 28.852900000     0.186789766  0.186789848  0.034658561


 FORCES acting on ions
    electron-ion (+dipol)            ewald-force                    non-local-force                 convergence-correction
 -----------------------------------------------------------------------------------------------
   0.429E-03 -.232E-03 -.113E+00   0.240E-02 -.196E-02 0.845E-01   -.867E-18 0.000E+00 0.254E-01   0.374E-06 -.812E-06 -.293E-05
   -.129E-03 0.597E-04 -.739E+00   0.172E-02 -.397E-03 0.737E+00   -.867E-18 0.000E+00 -.972E-02   0.454E-06 0.352E-06 -.394E-05
   -.870E+02 -.170E+00 -.562E+03   0.885E+02 0.170E+00 0.564E+03   -.165E+01 -.123E-02 -.236E+01   -.111E-03 -.248E-04 -.120E-03
   0.436E+02 -.752E+02 -.562E+03   -.444E+02 0.766E+02 0.564E+03   0.825E+00 -.143E+01 -.236E+01   0.773E-04 -.837E-04 -.120E-03
   0.433E+02 0.754E+02 -.562E+03   -.441E+02 -.768E+02 0.564E+03   0.823E+00 0.143E+01 -.236E+01   0.336E-04 0.108E-03 -.120E-03
   -.432E+02 -.753E+02 0.562E+03   0.440E+02 0.767E+02 -.564E+03   -.821E+00 -.142E+01 0.237E+01   -.767E-04 -.826E-04 0.114E-03
   0.868E+02 0.244E+00 0.562E+03   -.884E+02 -.247E+00 -.564E+03   0.164E+01 -.151E-02 0.237E+01   0.111E-03 -.244E-04 0.114E-03
   -.436E+02 0.751E+02 0.562E+03   0.444E+02 -.764E+02 -.564E+03   -.819E+00 0.142E+01 0.237E+01   -.338E-04 0.107E-03 0.114E-03
 -----------------------------------------------------------------------------------------------
   0.299E-01 -.174E-01 -.412E-01   0.000E+00 0.000E+00 0.114E-12   0.000E+00 0.222E-15 0.413E-01   0.108E-05 -.595E-06 -.261E-04
 
 
 POSITION                                       TOTAL-FORCE (eV/Angst)
 -----------------------------------------------------------------------------------
      6.18181      0.00001      6.52749        -0.000000      0.000000     -0.003527
      3.09089      1.78455      6.52999         0.000000      0.000000     -0.011930
      3.95029      3.56902      7.89003        -0.000281      0.001546      0.002721
      1.11581      1.63654      7.89003        -0.001199     -0.001016      0.002721
      4.20662      0.14806      7.89002         0.001479     -0.000530      0.002721
      5.06518      1.63436      5.16511        -0.003234      0.002781      0.002432
      2.23382      3.56940      5.16512        -0.000792     -0.004191      0.002432
      1.97371      0.14986      5.16510         0.004025      0.001410      0.002432
 -----------------------------------------------------------------------------------
    total drift:                                0.029854     -0.017413      0.000028


--------------------------------------------------------------------------------------------------------



  FREE ENERGIE OF THE ION-ELECTRON SYSTEM (eV)
  ---------------------------------------------------
  free  energy   TOTEN  =       -31.00125801 eV

  energy  without entropy=      -31.00125801  energy(sigma->0) =      -31.00125801
 


--------------------------------------------------------------------------------------------------------


    POTLOK:  cpu time      0.6158: real time      0.6426


--------------------------------------------------------------------------------------------------------


     LOOP+:  cpu time    600.6302: real time    652.8083
    4ORBIT:  cpu time      0.0001: real time      0.0005

 total amount of memory used by VASP MPI-rank0   393134. kBytes
=======================================================================

   base      :      30000. kBytes
   nonl-proj :     241571. kBytes
   fftplans  :      19623. kBytes
   grid      :      48494. kBytes
   one-center:        248. kBytes
   wavefun   :      53198. kBytes
 
  
  
 General timing and accounting informations for this job:
 ========================================================
  
                  Total CPU time used (sec):      611.531
                            User time (sec):      576.215
                          System time (sec):       35.315
                         Elapsed time (sec):      667.283
  
                   Maximum memory used (kb):      628400.
                   Average memory used (kb):          N/A
  
                          Minor page faults:       405514
                          Major page faults:       138971
                 Voluntary context switches:       198938
