 vasp.6.4.1 05Apr23 (build Mar 29 2024 11:13:27) complex                         
 executed on              LinuxNV date 2025.10.29  08:41:02
 running    1 mpi-ranks, with    1 threads/rank, on    1 nodes
 distrk:  each k-point on    1 cores,    1 groups
 distr:  one band on NCORE=   1 cores,    1 groups
 OpenACC runtime initialized ...    1 GPUs detected


--------------------------------------------------------------------------------------------------------


 INCAR:
   PREC = Accurate
   EDIFF = 1E-5
   ENCUT = 520
   NSW = 300
   IBRION = 2
   ISMEAR = 0
   SIGMA = 0.05
   ISIF = 3
   ISPIN = 2
   MAGMOM = 6 -6 0 0 0 0 0 0
   LREAL = F
   LWAVE = F
   LCHARG = F
   IVDW = 11
   LDAU = .TRUE.
   LDAUTYPE = 2
   LDAUL = 2  -1
   LDAUU = 4.5 0.0
   LDAUJ = 0.9 0.0

 POTCAR:    PAW_PBE Fe 06Sep2000                  
 POTCAR:    PAW_PBE Cl 06Sep2000                  
 POTCAR:    PAW_PBE Fe 06Sep2000                  
   VRHFIN =Fe:  d7 s1                                                                               
   LEXCH  = PE                                                                                      
   EATOM  =   594.3153 eV,   43.6809 Ry                                                             
                                                                                                    
   TITEL  = PAW_PBE Fe 06Sep2000                                                                    
   LULTRA =        F    use ultrasoft PP ?                                                          
   IUNSCR =        1    unscreen: 0-lin 1-nonlin 2-no                                               
   RPACOR =    2.000    partial core radius                                                         
   POMASS =   55.847; ZVAL   =    8.000    mass and valenz                                          
   RCORE  =    2.300    outmost cutoff radius                                                       
   RWIGS  =    2.460; RWIGS  =    1.302    wigner-seitz radius (au A)                               
   ENMAX  =  267.882; ENMIN  =  200.911 eV                                                          
   RCLOC  =    1.701    cutoff for local pot                                                        
   LCOR   =        T    correct aug charges                                                         
   LPAW   =        T    paw PP                                                                      
   EAUG   =  511.368                                                                                
   DEXC   =    0.000                                                                                
   RMAX   =    2.356    core radius for proj-oper                                                   
   RAUG   =    1.300    factor for augmentation sphere                                              
   RDEP   =    2.442    radius for radial grids                                                     
   RDEPT  =    1.890    core radius for aug-charge                                                  
                                                                                                    
   Atomic configuration                                                                             
    9 entries                                                                                       
     n  l   j            E        occ.                                                              
     1  0  0.50     -6993.8440   2.0000                                                             
     2  0  0.50      -814.6047   2.0000                                                             
     2  1  1.50      -693.3689   6.0000                                                             
     3  0  0.50       -89.4732   2.0000                                                             
     3  1  1.50       -55.6373   6.0000                                                             
     3  2  2.50        -3.8151   7.0000                                                             
     4  0  0.50        -4.2551   1.0000                                                             
     4  1  1.50        -3.4015   0.0000                                                             
     4  3  2.50        -1.3606   0.0000                                                             
   Description                                                                                      
     l       E           TYP  RCUT    TYP  RCUT                                                     
     2     -3.8151135     23  2.300                                                                 
     2     -5.1756961     23  2.300                                                                 
     0     -4.2550963     23  2.300                                                                 
     0      7.2035603     23  2.300                                                                 
     1     -2.7211652     23  2.300                                                                 
     1     18.4316424     23  2.300                                                                 
  local pseudopotential read in
  partial core-charges read in
  partial kinetic energy density read in
  atomic valenz-charges read in
  non local Contribution for L=            2  read in
    real space projection operators read in
  non local Contribution for L=            2  read in
    real space projection operators read in
  non local Contribution for L=            0  read in
    real space projection operators read in
  non local Contribution for L=            0  read in
    real space projection operators read in
  non local Contribution for L=            1  read in
    real space projection operators read in
  non local Contribution for L=            1  read in
    real space projection operators read in
    PAW grid and wavefunctions read in
 
   number of l-projection  operators is LMAX  =            6
   number of lm-projection operators is LMMAX =           18
 
 POTCAR:    PAW_PBE Cl 06Sep2000                  
   VRHFIN =Cl: s2p5                                                                                 
   LEXCH  = PE                                                                                      
   EATOM  =   409.7259 eV,   30.1140 Ry                                                             
                                                                                                    
   TITEL  = PAW_PBE Cl 06Sep2000                                                                    
   LULTRA =        F    use ultrasoft PP ?                                                          
   IUNSCR =        1    unscreen: 0-lin 1-nonlin 2-no                                               
   RPACOR =    1.500    partial core radius                                                         
   POMASS =   35.453; ZVAL   =    7.000    mass and valenz                                          
   RCORE  =    1.900    outmost cutoff radius                                                       
   RWIGS  =    2.100; RWIGS  =    1.111    wigner-seitz radius (au A)                               
   ENMAX  =  262.472; ENMIN  =  196.854 eV                                                          
   ICORE  =        2    local potential                                                             
   LCOR   =        T    correct aug charges                                                         
   LPAW   =        T    paw PP                                                                      
   EAUG   =  356.192                                                                                
   DEXC   =    0.000                                                                                
   RMAX   =    1.945    core radius for proj-oper                                                   
   RAUG   =    1.300    factor for augmentation sphere                                              
   RDEP   =    2.020    radius for radial grids                                                     
   RDEPT  =    1.678    core radius for aug-charge                                                  
                                                                                                    
   Atomic configuration                                                                             
    6 entries                                                                                       
     n  l   j            E        occ.                                                              
     1  0  0.50     -2751.1850   2.0000                                                             
     2  0  0.50      -252.6861   2.0000                                                             
     2  1  1.50      -191.6157   6.0000                                                             
     3  0  0.50       -20.6916   2.0000                                                             
     3  1  0.50        -8.5949   5.0000                                                             
     3  2  1.50        -8.1635   0.0000                                                             
   Description                                                                                      
     l       E           TYP  RCUT    TYP  RCUT                                                     
     0    -20.6915656     23  1.900                                                                 
     0    -22.0521482     23  1.900                                                                 
     1     -8.5948577     23  1.900                                                                 
     1     -5.3847331     23  1.900                                                                 
     2     -8.1634956     23  1.900                                                                 
  local pseudopotential read in
  partial core-charges read in
  partial kinetic energy density read in
  atomic valenz-charges read in
  non local Contribution for L=            0  read in
    real space projection operators read in
  non local Contribution for L=            0  read in
    real space projection operators read in
  non local Contribution for L=            1  read in
    real space projection operators read in
  non local Contribution for L=            1  read in
    real space projection operators read in
    PAW grid and wavefunctions read in
 
   number of l-projection  operators is LMAX  =            4
   number of lm-projection operators is LMMAX =            8
 
  PAW_PBE Fe 06Sep2000                  :
 energy of atom  1       EATOM= -594.3153
 kinetic energy error for atom=    0.0026 (will be added to EATOM!!)
  PAW_PBE Cl 06Sep2000                  :
 energy of atom  2       EATOM= -409.7259
 kinetic energy error for atom=    0.0023 (will be added to EATOM!!)
 
 
 POSCAR: Fe Cl
  positions in direct lattice
  velocities in cartesian coordinates
 exchange correlation table for  LEXCH =        8
   RHO(1)=    0.500       N(1)  =     2000
   RHO(2)=  100.500       N(2)  =     4000
 


--------------------------------------------------------------------------------------------------------


 ion  position               nearest neighbor table
   1  0.000  0.000  0.362-   7 2.41   8 2.41   6 2.41   4 2.42   3 2.42   5 2.42
   2  0.667  0.333  0.364-   4 2.41   5 2.41   3 2.41   6 2.42   7 2.42   8 2.42
   3  0.973  0.668  0.439-   2 2.41   1 2.42
   4  0.332  0.305  0.439-   2 2.41   1 2.42
   5  0.695  0.027  0.439-   2 2.41   1 2.42
   6  0.972  0.306  0.286-   1 2.41   2 2.42
   7  0.694  0.666  0.286-   1 2.41   2 2.42
   8  0.334  0.028  0.286-   1 2.41   2 2.42
 
  LATTYP: Found a hexagonal cell.
 ALAT       =     6.1878817705
 C/A-ratio  =     2.9117638891
  
  Lattice vectors:
  
 A1 = (   6.1878817705,   0.0000000000,   0.0000000000)
 A2 = (  -3.0939408804,   5.3588595047,   0.0000000000)
 A3 = (   0.0000000000,   0.0000000000,  18.0176506895)


Analysis of symmetry for initial positions (statically):
=====================================================================
 Subroutine PRICEL returns:
 Original cell was already a primitive cell.
 

 Routine SETGRP: Setting up the symmetry group for a 
 hexagonal supercell.


 Subroutine GETGRP returns: Found  3 space group operations
 (whereof  3 operations were pure point group operations)
 out of a pool of 24 trial point group operations.


The static configuration has the point symmetry C_3 .


Analysis of symmetry for dynamics (positions and initial velocities):
=====================================================================
 Subroutine PRICEL returns:
 Original cell was already a primitive cell.
 

 Routine SETGRP: Setting up the symmetry group for a 
 hexagonal supercell.


 Subroutine GETGRP returns: Found  3 space group operations
 (whereof  3 operations were pure point group operations)
 out of a pool of 24 trial point group operations.


The dynamic configuration has the point symmetry C_3 .


Analysis of structural, dynamic, and magnetic symmetry:
=====================================================================
 Subroutine PRICEL returns:
 Original cell was already a primitive cell.
 

 Routine SETGRP: Setting up the symmetry group for a 
 hexagonal supercell.


 Subroutine GETGRP returns: Found  3 space group operations
 (whereof  3 operations were pure point group operations)
 out of a pool of 24 trial point group operations.


The overall configuration has the point symmetry C_3 .


 Subroutine INISYM returns: Found  3 space group operations
 (whereof  3 operations are pure point group operations),
 and found     1 'primitive' translations


----------------------------------------------------------------------------------------

                                     Primitive cell                                     

  volume of cell :     597.4651

  direct lattice vectors                    reciprocal lattice vectors
     6.187881770  0.000000000  0.000000000     0.161606190  0.093303435 -0.000000000
    -3.093940880  5.358859505  0.000000000     0.000000000  0.186606870  0.000000000
     0.000000000  0.000000000 18.017650689     0.000000000 -0.000000000  0.055501131

  length of vectors
     6.187881770  6.187878907 18.017650689     0.186606784  0.186606870  0.055501131

  position of ions in fractional coordinates (direct lattice)
     0.000000150  0.000000515  0.361773966
     0.666666440  0.333333168  0.363743277
     0.972659789  0.667527792  0.439141011
     0.332472420  0.305133329  0.439139694
     0.694866094  0.027340391  0.439140675
     0.971595420  0.305794752  0.286111057
     0.694204584  0.665805285  0.286111638
     0.334195145  0.028404753  0.286109934

  ion indices of the primitive-cell ions
   primitive index   ion index
                 1           1
                 2           2
                 3           3
                 4           4
                 5           5
                 6           6
                 7           7
                 8           8

----------------------------------------------------------------------------------------

 
 
 KPOINTS: Automatic mesh                          

Automatic generation of k-mesh.
 Grid dimensions read from file:
 generate k-points for:   24   24    1

 Generating k-lattice:

  Cartesian coordinates                     Fractional coordinates (reciprocal lattice)
     0.006733591  0.003887643 -0.000000000     0.041666667  0.000000000  0.000000000
     0.000000000  0.007775286  0.000000000     0.000000000  0.041666667  0.000000000
     0.000000000 -0.000000000  0.055501131     0.000000000  0.000000000  1.000000000

  Length of vectors
     0.007775283  0.007775286  0.055501131

  Shift w.r.t. Gamma in fractional coordinates (k-lattice)
     0.000000000  0.000000000  0.000000000

 
 Subroutine IBZKPT returns following result:
 ===========================================
 
 Found     98 irreducible k-points:
 
 Following reciprocal coordinates:
            Coordinates               Weight
  0.000000  0.000000  0.000000      1.000000
  0.041667  0.000000  0.000000      6.000000
  0.083333  0.000000  0.000000      6.000000
  0.125000  0.000000  0.000000      6.000000
  0.166667  0.000000  0.000000      6.000000
  0.208333  0.000000  0.000000      6.000000
  0.250000  0.000000  0.000000      6.000000
  0.291667  0.000000  0.000000      6.000000
  0.333333  0.000000  0.000000      6.000000
  0.375000  0.000000  0.000000      6.000000
  0.416667  0.000000  0.000000      6.000000
  0.458333  0.000000  0.000000      6.000000
  0.500000  0.000000  0.000000      3.000000
  0.041667  0.041667  0.000000      6.000000
  0.083333  0.041667  0.000000      6.000000
 -0.083333  0.125000  0.000000      6.000000
  0.125000  0.041667  0.000000      6.000000
 -0.125000  0.166667  0.000000      6.000000
  0.166667  0.041667  0.000000      6.000000
 -0.166667  0.208333  0.000000      6.000000
  0.208333  0.041667  0.000000      6.000000
 -0.208333  0.250000  0.000000      6.000000
  0.250000  0.041667  0.000000      6.000000
 -0.250000  0.291667  0.000000      6.000000
  0.291667  0.041667  0.000000      6.000000
 -0.291667  0.333333  0.000000      6.000000
  0.333333  0.041667  0.000000      6.000000
 -0.333333  0.375000  0.000000      6.000000
  0.375000  0.041667  0.000000      6.000000
 -0.375000  0.416667  0.000000      6.000000
  0.416667  0.041667  0.000000      6.000000
 -0.416667  0.458333  0.000000      6.000000
  0.458333  0.041667  0.000000      6.000000
 -0.458333  0.500000  0.000000      6.000000
  0.083333  0.083333  0.000000      6.000000
  0.125000  0.083333  0.000000      6.000000
 -0.125000  0.208333  0.000000      6.000000
  0.166667  0.083333  0.000000      6.000000
 -0.166667  0.250000  0.000000      6.000000
  0.208333  0.083333  0.000000      6.000000
 -0.208333  0.291667  0.000000      6.000000
  0.250000  0.083333  0.000000      6.000000
 -0.250000  0.333333  0.000000      6.000000
  0.291667  0.083333  0.000000      6.000000
 -0.291667  0.375000  0.000000      6.000000
  0.333333  0.083333  0.000000      6.000000
 -0.333333  0.416667  0.000000      6.000000
  0.375000  0.083333  0.000000      6.000000
 -0.375000  0.458333  0.000000      6.000000
  0.416667  0.083333  0.000000      6.000000
 -0.416667  0.500000  0.000000      6.000000
  0.458333  0.083333  0.000000      6.000000
  0.125000  0.125000  0.000000      6.000000
  0.166667  0.125000  0.000000      6.000000
 -0.166667  0.291667  0.000000      6.000000
  0.208333  0.125000  0.000000      6.000000
 -0.208333  0.333333  0.000000      6.000000
  0.250000  0.125000  0.000000      6.000000
 -0.250000  0.375000  0.000000      6.000000
  0.291667  0.125000  0.000000      6.000000
 -0.291667  0.416667  0.000000      6.000000
  0.333333  0.125000  0.000000      6.000000
 -0.333333  0.458333  0.000000      6.000000
  0.375000  0.125000  0.000000      6.000000
 -0.375000  0.500000  0.000000      6.000000
  0.416667  0.125000  0.000000      6.000000
 -0.416667 -0.458333  0.000000      6.000000
  0.166667  0.166667  0.000000      6.000000
  0.208333  0.166667  0.000000      6.000000
 -0.208333  0.375000  0.000000      6.000000
  0.250000  0.166667  0.000000      6.000000
 -0.250000  0.416667  0.000000      6.000000
  0.291667  0.166667  0.000000      6.000000
 -0.291667  0.458333  0.000000      6.000000
  0.333333  0.166667  0.000000      6.000000
 -0.333333  0.500000  0.000000      6.000000
  0.375000  0.166667  0.000000      6.000000
 -0.375000 -0.458333  0.000000      6.000000
  0.416667  0.166667  0.000000      6.000000
  0.208333  0.208333  0.000000      6.000000
  0.250000  0.208333  0.000000      6.000000
 -0.250000  0.458333  0.000000      6.000000
  0.291667  0.208333  0.000000      6.000000
 -0.291667  0.500000  0.000000      6.000000
  0.333333  0.208333  0.000000      6.000000
 -0.333333 -0.458333  0.000000      6.000000
  0.375000  0.208333  0.000000      6.000000
 -0.375000 -0.416667  0.000000      6.000000
  0.250000  0.250000  0.000000      6.000000
  0.291667  0.250000  0.000000      6.000000
 -0.291667 -0.458333  0.000000      6.000000
  0.333333  0.250000  0.000000      6.000000
 -0.333333 -0.416667  0.000000      6.000000
  0.375000  0.250000  0.000000      6.000000
  0.291667  0.291667  0.000000      6.000000
  0.333333  0.291667  0.000000      6.000000
 -0.333333 -0.375000  0.000000      6.000000
  0.333333  0.333333  0.000000      2.000000
 
 Following cartesian coordinates:
            Coordinates               Weight
  0.000000  0.000000  0.000000      1.000000
  0.006734  0.003888  0.000000      6.000000
  0.013467  0.007775  0.000000      6.000000
  0.020201  0.011663  0.000000      6.000000
  0.026934  0.015551  0.000000      6.000000
  0.033668  0.019438  0.000000      6.000000
  0.040402  0.023326  0.000000      6.000000
  0.047135  0.027214  0.000000      6.000000
  0.053869  0.031101  0.000000      6.000000
  0.060602  0.034989  0.000000      6.000000
  0.067336  0.038876  0.000000      6.000000
  0.074070  0.042764  0.000000      6.000000
  0.080803  0.046652  0.000000      3.000000
  0.006734  0.011663  0.000000      6.000000
  0.013467  0.015551  0.000000      6.000000
 -0.013467  0.015551  0.000000      6.000000
  0.020201  0.019438  0.000000      6.000000
 -0.020201  0.019438  0.000000      6.000000
  0.026934  0.023326  0.000000      6.000000
 -0.026934  0.023326  0.000000      6.000000
  0.033668  0.027214  0.000000      6.000000
 -0.033668  0.027214  0.000000      6.000000
  0.040402  0.031101  0.000000      6.000000
 -0.040402  0.031101  0.000000      6.000000
  0.047135  0.034989  0.000000      6.000000
 -0.047135  0.034989  0.000000      6.000000
  0.053869  0.038876  0.000000      6.000000
 -0.053869  0.038876  0.000000      6.000000
  0.060602  0.042764  0.000000      6.000000
 -0.060602  0.042764  0.000000      6.000000
  0.067336  0.046652  0.000000      6.000000
 -0.067336  0.046652  0.000000      6.000000
  0.074070  0.050539  0.000000      6.000000
 -0.074070  0.050539  0.000000      6.000000
  0.013467  0.023326  0.000000      6.000000
  0.020201  0.027214  0.000000      6.000000
 -0.020201  0.027214  0.000000      6.000000
  0.026934  0.031101  0.000000      6.000000
 -0.026934  0.031101  0.000000      6.000000
  0.033668  0.034989  0.000000      6.000000
 -0.033668  0.034989  0.000000      6.000000
  0.040402  0.038876  0.000000      6.000000
 -0.040402  0.038876  0.000000      6.000000
  0.047135  0.042764  0.000000      6.000000
 -0.047135  0.042764  0.000000      6.000000
  0.053869  0.046652  0.000000      6.000000
 -0.053869  0.046652  0.000000      6.000000
  0.060602  0.050539  0.000000      6.000000
 -0.060602  0.050539  0.000000      6.000000
  0.067336  0.054427  0.000000      6.000000
 -0.067336  0.054427  0.000000      6.000000
  0.074070  0.058315  0.000000      6.000000
  0.020201  0.034989  0.000000      6.000000
  0.026934  0.038876  0.000000      6.000000
 -0.026934  0.038876  0.000000      6.000000
  0.033668  0.042764  0.000000      6.000000
 -0.033668  0.042764  0.000000      6.000000
  0.040402  0.046652  0.000000      6.000000
 -0.040402  0.046652  0.000000      6.000000
  0.047135  0.050539  0.000000      6.000000
 -0.047135  0.050539  0.000000      6.000000
  0.053869  0.054427  0.000000      6.000000
 -0.053869  0.054427  0.000000      6.000000
  0.060602  0.058315  0.000000      6.000000
 -0.060602  0.058315  0.000000      6.000000
  0.067336  0.062202  0.000000      6.000000
 -0.067336 -0.124405  0.000000      6.000000
  0.026934  0.046652  0.000000      6.000000
  0.033668  0.050539  0.000000      6.000000
 -0.033668  0.050539  0.000000      6.000000
  0.040402  0.054427  0.000000      6.000000
 -0.040402  0.054427  0.000000      6.000000
  0.047135  0.058315  0.000000      6.000000
 -0.047135  0.058315  0.000000      6.000000
  0.053869  0.062202  0.000000      6.000000
 -0.053869  0.062202  0.000000      6.000000
  0.060602  0.066090  0.000000      6.000000
 -0.060602 -0.120517  0.000000      6.000000
  0.067336  0.069978  0.000000      6.000000
  0.033668  0.058315  0.000000      6.000000
  0.040402  0.062202  0.000000      6.000000
 -0.040402  0.062202  0.000000      6.000000
  0.047135  0.066090  0.000000      6.000000
 -0.047135  0.066090  0.000000      6.000000
  0.053869  0.069978  0.000000      6.000000
 -0.053869 -0.116629  0.000000      6.000000
  0.060602  0.073865  0.000000      6.000000
 -0.060602 -0.112742  0.000000      6.000000
  0.040402  0.069978  0.000000      6.000000
  0.047135  0.073865  0.000000      6.000000
 -0.047135 -0.112742  0.000000      6.000000
  0.053869  0.077753  0.000000      6.000000
 -0.053869 -0.108854  0.000000      6.000000
  0.060602  0.081641  0.000000      6.000000
  0.047135  0.081641  0.000000      6.000000
  0.053869  0.085528  0.000000      6.000000
 -0.053869 -0.101079  0.000000      6.000000
  0.053869  0.093303  0.000000      2.000000
 


--------------------------------------------------------------------------------------------------------




 Dimension of arrays:
   k-points           NKPTS =     98   k-points in BZ     NKDIM =     98   number of bands    NBANDS=     34
   number of dos      NEDOS =    301   number of ions     NIONS =      8
   non local maximal  LDIM  =      6   non local SUM 2l+1 LMDIM =     18
   total plane-waves  NPLWV = 322560
   max r-space proj   IRMAX =      1   max aug-charges    IRDMAX=  19429
   dimension x,y,z NGX =    48 NGY =   48 NGZ =  140
   dimension x,y,z NGXF=    96 NGYF=   96 NGZF=  280
   support grid    NGXF=    96 NGYF=   96 NGZF=  280
   ions per type =               2   6
   NGX,Y,Z   is equivalent  to a cutoff of  12.90, 12.90, 12.92 a.u.
   NGXF,Y,Z  is equivalent  to a cutoff of  25.79, 25.79, 25.84 a.u.

 SYSTEM =  unknown system                          
 POSCAR =  Fe Cl                                   

 Startparameter for this run:
   NWRITE =      2    write-flag & timer
   PREC   = accura    normal or accurate (medium, high low for compatibility)
   ISTART =      0    job   : 0-new  1-cont  2-samecut
   ICHARG =      2    charge: 1-file 2-atom 10-const
   ISPIN  =      2    spin polarized calculation?
   LNONCOLLINEAR =      F non collinear calculations
   LSORBIT =      F    spin-orbit coupling
   INIWAV =      1    electr: 0-lowe 1-rand  2-diag
   LASPH  =      F    aspherical Exc in radial PAW
 Electronic Relaxation 1
   ENCUT  =  520.0 eV  38.22 Ry    6.18 a.u.  11.51 11.51 33.50*2*pi/ulx,y,z
   ENINI  =  520.0     initial cutoff
   ENAUG  =  511.4 eV  augmentation charge cutoff
   NELM   =     60;   NELMIN=  2; NELMDL=  0     # of ELM steps 
   EDIFF  = 0.1E-04   stopping-criterion for ELM
   LREAL  =      F    real-space projection
   NLSPLINE    = F    spline interpolate recip. space projectors
   LCOMPAT=      F    compatible to vasp.4.4
   GGA_COMPAT  = T    GGA compatible to vasp.4.4-vasp.4.6
   LMAXPAW     = -100 max onsite density
   LMAXMIX     =    2 max onsite mixed and CHGCAR
   VOSKOWN=      0    Vosko Wilk Nusair interpolation
   ROPT   =    0.00000   0.00000
 Ionic relaxation
   EDIFFG = 0.1E-03   stopping-criterion for IOM
   NSW    =    300    number of steps for IOM
   NBLOCK =      1;   KBLOCK =    300    inner block; outer block 
   IBRION =      2    ionic relax: 0-MD 1-quasi-New 2-CG
   NFREE  =      1    steps in history (QN), initial steepest desc. (CG)
   ISIF   =      3    stress and relaxation
   IWAVPR =     11    prediction:  0-non 1-charg 2-wave 3-comb
   ISYM   =      2    0-nonsym 1-usesym 2-fastsym
   LCORR  =      T    Harris-Foulkes like correction to forces

   POTIM  = 0.5000    time-step for ionic-motion
   TEIN   =    0.0    initial temperature
   TEBEG  =    0.0;   TEEND  =   0.0 temperature during run
   SMASS  =  -3.00    Nose mass-parameter (am)
   estimated Nose-frequenzy (Omega)   =  0.10E-29 period in steps = 0.13E+47 mass=  -0.875E-27a.u.
   SCALEE = 1.0000    scale energy and forces
   NPACO  =    256;   APACO  = 10.0  distance and # of slots for P.C.
   PSTRESS=    0.0 pullay stress

  Mass of Ions in am
   POMASS =  55.85 35.45
  Ionic Valenz
   ZVAL   =   8.00  7.00
  Atomic Wigner-Seitz radii
   RWIGS  =  -1.00 -1.00
  virtual crystal weights 
   VCA    =   1.00  1.00
   NELECT =      58.0000    total number of electrons
   NUPDOWN=      -1.0000    fix difference up-down

 DOS related values:
   EMIN   =  10.00;   EMAX   =-10.00  energy-range for DOS
   EFERMI =   0.00;   METHOD = LEGACY      
   ISMEAR =     0;   SIGMA  =   0.05  broadening in eV -4-tet -1-fermi 0-gaus

 Electronic relaxation 2 (details)
   IALGO  =     38    algorithm
   LDIAG  =      T    sub-space diagonalisation (order eigenvalues)
   LSUBROT=      F    optimize rotation matrix (better conditioning)
   TURBO    =      0    0=normal 1=particle mesh
   IRESTART =      0    0=no restart 2=restart with 2 vectors
   NREBOOT  =      0    no. of reboots
   NMIN     =      0    reboot dimension
   EREF     =   0.00    reference energy to select bands
   IMIX   =      4    mixing-type and parameters
     AMIX     =   0.40;   BMIX     =  1.00
     AMIX_MAG =   1.60;   BMIX_MAG =  1.00
     AMIN     =   0.10
     WC   =   100.;   INIMIX=   1;  MIXPRE=   1;  MAXMIX= -45

 Intra band minimization:
   WEIMIN = 0.0010     energy-eigenvalue tresh-hold
   EBREAK =  0.74E-07  absolut break condition
   DEPER  =   0.30     relativ break condition  

   TIME   =   0.40     timestep for ELM

  volume/ion in A,a.u.               =      74.68       503.99
  Fermi-wavevector in a.u.,A,eV,Ry     =   0.752396  1.421823  7.702261  0.566100
  Thomas-Fermi vector in A             =   1.849597
 
 Write flags
   LWAVE        =      F    write WAVECAR
   LDOWNSAMPLE  =      F    k-point downsampling of WAVECAR
   LCHARG       =      F    write CHGCAR
   LVTOT        =      F    write LOCPOT, total local potential
   LVHAR        =      F    write LOCPOT, Hartree potential only
   LELF         =      F    write electronic localiz. function (ELF)
   LORBIT       =      0    0 simple, 1 ext, 2 COOP (PROOUT), +10 PAW based schemes


 Dipole corrections
   LMONO  =      F    monopole corrections only (constant potential shift)
   LDIPOL =      F    correct potential (dipole corrections)
   IDIPOL =      0    1-x, 2-y, 3-z, 4-all directions 
   EPSILON=  1.0000000 bulk dielectric constant

 LDA+U is selected, type is set to LDAUTYPE =  2
   angular momentum for each species LDAUL =     2   -1
   U (eV)           for each species LDAUU =   4.5  0.0
   J (eV)           for each species LDAUJ =   0.9  0.0
 Exchange correlation treatment:
   GGA     =    --    GGA type
   LEXCH   =     8    internal setting for exchange type
   LIBXC   =     F    Libxc                    
   VOSKOWN =     0    Vosko Wilk Nusair interpolation
   LHFCALC =     F    Hartree Fock is set to
   LHFONE  =     F    Hartree Fock one center treatment
   AEXX    =    0.0000 exact exchange contribution

 Linear response parameters
   LEPSILON=     F    determine dielectric tensor
   LRPA    =     F    only Hartree local field effects (RPA)
   LNABLA  =     F    use nabla operator in PAW spheres
   LVEL    =     F    velocity operator in full k-point grid
   CSHIFT  =0.1000    complex shift for real part using Kramers Kronig
   OMEGAMAX=  -1.0    maximum frequency
   DEG_THRESHOLD= 0.2000000E-02 threshold for treating states as degnerate
   RTIME   =   -0.100 relaxation time in fs
  (WPLASMAI=    0.000 imaginary part of plasma frequency in eV, 0.658/RTIME)
   DFIELD  = 0.0000000 0.0000000 0.0000000 field for delta impulse in time
 
  Optional k-point grid parameters
   LKPOINTS_OPT  =     F    use optional k-point grid
   KPOINTS_OPT_MODE=     1    mode for optional k-point grid
 
 Orbital magnetization related:
   ORBITALMAG=     F  switch on orbital magnetization
   LCHIMAG   =     F  perturbation theory with respect to B field
   DQ        =  0.001000  dq finite difference perturbation B field
   LLRAUG    =     F  two centre corrections for induced B field
   LBONE     =     F  B-component reconstruction in AE one-centre
   LVGVCALC  =     T  calculate vGv susceptibility
   LVGVAPPL  =     F  apply vGv susceptibility instead of pGv for G=0

 Random number generation:
   RANDOM_GENERATOR = DEFAULT
   PCG_SEED         = not used


--------------------------------------------------------------------------------------------------------


 conjugate gradient relaxation of ions
 charge density and potential will be updated during run
 spin polarized calculation
 Variant of blocked Davidson
 Davidson routine will perform the subspace rotation
 perform sub-space diagonalisation
    after iterative eigenvector-optimisation
 modified Broyden-mixing scheme, WC =      100.0
 initial mixing is a Kerker type mixing with AMIX =  0.4000 and BMIX =      1.0000
 Hartree-type preconditioning will be used
 using additional bands             5
 reciprocal scheme for non local part
 use partial core corrections
 calculate Harris-corrections to forces 
   (improved forces if not selfconsistent)
 use gradient corrections 
 use of overlap-Matrix (Vanderbilt PP)
 Gauss-broadening in eV      SIGMA  =   0.05


--------------------------------------------------------------------------------------------------------


  energy-cutoff  :      520.00
  volume of cell :      597.47
      direct lattice vectors                 reciprocal lattice vectors
     6.187881770  0.000000000  0.000000000     0.161606190  0.093303435 -0.000000000
    -3.093940880  5.358859505  0.000000000     0.000000000  0.186606870  0.000000000
     0.000000000  0.000000000 18.017650689     0.000000000 -0.000000000  0.055501131

  length of vectors
     6.187881770  6.187878907 18.017650689     0.186606784  0.186606870  0.055501131


 
 k-points in units of 2pi/SCALE and weight: Automatic mesh                          
   0.00000000  0.00000000  0.00000000       0.002
   0.00673359  0.00388764  0.00000000       0.010
   0.01346718  0.00777529  0.00000000       0.010
   0.02020077  0.01166293  0.00000000       0.010
   0.02693437  0.01555057  0.00000000       0.010
   0.03366796  0.01943822  0.00000000       0.010
   0.04040155  0.02332586  0.00000000       0.010
   0.04713514  0.02721350  0.00000000       0.010
   0.05386873  0.03110114  0.00000000       0.010
   0.06060232  0.03498879  0.00000000       0.010
   0.06733591  0.03887643  0.00000000       0.010
   0.07406950  0.04276407  0.00000000       0.010
   0.08080310  0.04665172  0.00000000       0.005
   0.00673359  0.01166293  0.00000000       0.010
   0.01346718  0.01555057  0.00000000       0.010
  -0.01346718  0.01555057  0.00000000       0.010
   0.02020077  0.01943822  0.00000000       0.010
  -0.02020077  0.01943822  0.00000000       0.010
   0.02693437  0.02332586  0.00000000       0.010
  -0.02693437  0.02332586  0.00000000       0.010
   0.03366796  0.02721350  0.00000000       0.010
  -0.03366796  0.02721350  0.00000000       0.010
   0.04040155  0.03110114  0.00000000       0.010
  -0.04040155  0.03110115  0.00000000       0.010
   0.04713514  0.03498879  0.00000000       0.010
  -0.04713514  0.03498879  0.00000000       0.010
   0.05386873  0.03887643  0.00000000       0.010
  -0.05386873  0.03887643  0.00000000       0.010
   0.06060232  0.04276407  0.00000000       0.010
  -0.06060232  0.04276407  0.00000000       0.010
   0.06733591  0.04665172  0.00000000       0.010
  -0.06733591  0.04665172  0.00000000       0.010
   0.07406950  0.05053936  0.00000000       0.010
  -0.07406950  0.05053936  0.00000000       0.010
   0.01346718  0.02332586  0.00000000       0.010
   0.02020077  0.02721350  0.00000000       0.010
  -0.02020077  0.02721350  0.00000000       0.010
   0.02693437  0.03110115  0.00000000       0.010
  -0.02693437  0.03110115  0.00000000       0.010
   0.03366796  0.03498879  0.00000000       0.010
  -0.03366796  0.03498879  0.00000000       0.010
   0.04040155  0.03887643  0.00000000       0.010
  -0.04040155  0.03887643  0.00000000       0.010
   0.04713514  0.04276407  0.00000000       0.010
  -0.04713514  0.04276407  0.00000000       0.010
   0.05386873  0.04665172  0.00000000       0.010
  -0.05386873  0.04665172  0.00000000       0.010
   0.06060232  0.05053936  0.00000000       0.010
  -0.06060232  0.05053936  0.00000000       0.010
   0.06733591  0.05442700  0.00000000       0.010
  -0.06733591  0.05442700  0.00000000       0.010
   0.07406950  0.05831465  0.00000000       0.010
   0.02020077  0.03498879  0.00000000       0.010
   0.02693437  0.03887643  0.00000000       0.010
  -0.02693437  0.03887643  0.00000000       0.010
   0.03366796  0.04276407  0.00000000       0.010
  -0.03366796  0.04276407  0.00000000       0.010
   0.04040155  0.04665172  0.00000000       0.010
  -0.04040155  0.04665172  0.00000000       0.010
   0.04713514  0.05053936  0.00000000       0.010
  -0.04713514  0.05053936  0.00000000       0.010
   0.05386873  0.05442700  0.00000000       0.010
  -0.05386873  0.05442700  0.00000000       0.010
   0.06060232  0.05831465  0.00000000       0.010
  -0.06060232  0.05831465  0.00000000       0.010
   0.06733591  0.06220229  0.00000000       0.010
  -0.06733591 -0.12440458  0.00000000       0.010
   0.02693437  0.04665172  0.00000000       0.010
   0.03366796  0.05053936  0.00000000       0.010
  -0.03366796  0.05053936  0.00000000       0.010
   0.04040155  0.05442700  0.00000000       0.010
  -0.04040155  0.05442700  0.00000000       0.010
   0.04713514  0.05831465  0.00000000       0.010
  -0.04713514  0.05831465  0.00000000       0.010
   0.05386873  0.06220229  0.00000000       0.010
  -0.05386873  0.06220229  0.00000000       0.010
   0.06060232  0.06608993  0.00000000       0.010
  -0.06060232 -0.12051694  0.00000000       0.010
   0.06733591  0.06997758  0.00000000       0.010
   0.03366796  0.05831465  0.00000000       0.010
   0.04040155  0.06220229  0.00000000       0.010
  -0.04040155  0.06220229  0.00000000       0.010
   0.04713514  0.06608993  0.00000000       0.010
  -0.04713514  0.06608993  0.00000000       0.010
   0.05386873  0.06997758  0.00000000       0.010
  -0.05386873 -0.11662929  0.00000000       0.010
   0.06060232  0.07386522  0.00000000       0.010
  -0.06060232 -0.11274165  0.00000000       0.010
   0.04040155  0.06997758  0.00000000       0.010
   0.04713514  0.07386522  0.00000000       0.010
  -0.04713514 -0.11274165  0.00000000       0.010
   0.05386873  0.07775286  0.00000000       0.010
  -0.05386873 -0.10885401  0.00000000       0.010
   0.06060232  0.08164051  0.00000000       0.010
   0.04713514  0.08164051  0.00000000       0.010
   0.05386873  0.08552815  0.00000000       0.010
  -0.05386873 -0.10107872  0.00000000       0.010
   0.05386873  0.09330344  0.00000000       0.003
 
 k-points in reciprocal lattice and weights: Automatic mesh                          
   0.00000000  0.00000000  0.00000000       0.002
   0.04166667  0.00000000  0.00000000       0.010
   0.08333333  0.00000000  0.00000000       0.010
   0.12500000  0.00000000  0.00000000       0.010
   0.16666667  0.00000000  0.00000000       0.010
   0.20833333  0.00000000  0.00000000       0.010
   0.25000000  0.00000000  0.00000000       0.010
   0.29166667  0.00000000  0.00000000       0.010
   0.33333333  0.00000000  0.00000000       0.010
   0.37500000  0.00000000  0.00000000       0.010
   0.41666667  0.00000000  0.00000000       0.010
   0.45833333  0.00000000  0.00000000       0.010
   0.50000000  0.00000000  0.00000000       0.005
   0.04166667  0.04166667  0.00000000       0.010
   0.08333333  0.04166667  0.00000000       0.010
  -0.08333333  0.12500000  0.00000000       0.010
   0.12500000  0.04166667  0.00000000       0.010
  -0.12500000  0.16666667  0.00000000       0.010
   0.16666667  0.04166667  0.00000000       0.010
  -0.16666667  0.20833333  0.00000000       0.010
   0.20833333  0.04166667  0.00000000       0.010
  -0.20833333  0.25000000  0.00000000       0.010
   0.25000000  0.04166667  0.00000000       0.010
  -0.25000000  0.29166667  0.00000000       0.010
   0.29166667  0.04166667  0.00000000       0.010
  -0.29166667  0.33333333  0.00000000       0.010
   0.33333333  0.04166667  0.00000000       0.010
  -0.33333333  0.37500000  0.00000000       0.010
   0.37500000  0.04166667  0.00000000       0.010
  -0.37500000  0.41666667  0.00000000       0.010
   0.41666667  0.04166667  0.00000000       0.010
  -0.41666667  0.45833333  0.00000000       0.010
   0.45833333  0.04166667  0.00000000       0.010
  -0.45833333  0.50000000  0.00000000       0.010
   0.08333333  0.08333333  0.00000000       0.010
   0.12500000  0.08333333  0.00000000       0.010
  -0.12500000  0.20833333  0.00000000       0.010
   0.16666667  0.08333333  0.00000000       0.010
  -0.16666667  0.25000000  0.00000000       0.010
   0.20833333  0.08333333  0.00000000       0.010
  -0.20833333  0.29166667  0.00000000       0.010
   0.25000000  0.08333333  0.00000000       0.010
  -0.25000000  0.33333333  0.00000000       0.010
   0.29166667  0.08333333  0.00000000       0.010
  -0.29166667  0.37500000  0.00000000       0.010
   0.33333333  0.08333333  0.00000000       0.010
  -0.33333333  0.41666667  0.00000000       0.010
   0.37500000  0.08333333  0.00000000       0.010
  -0.37500000  0.45833333  0.00000000       0.010
   0.41666667  0.08333333  0.00000000       0.010
  -0.41666667  0.50000000  0.00000000       0.010
   0.45833333  0.08333333  0.00000000       0.010
   0.12500000  0.12500000  0.00000000       0.010
   0.16666667  0.12500000  0.00000000       0.010
  -0.16666667  0.29166667  0.00000000       0.010
   0.20833333  0.12500000  0.00000000       0.010
  -0.20833333  0.33333333  0.00000000       0.010
   0.25000000  0.12500000  0.00000000       0.010
  -0.25000000  0.37500000  0.00000000       0.010
   0.29166667  0.12500000  0.00000000       0.010
  -0.29166667  0.41666667  0.00000000       0.010
   0.33333333  0.12500000  0.00000000       0.010
  -0.33333333  0.45833333  0.00000000       0.010
   0.37500000  0.12500000  0.00000000       0.010
  -0.37500000  0.50000000  0.00000000       0.010
   0.41666667  0.12500000  0.00000000       0.010
  -0.41666667 -0.45833333  0.00000000       0.010
   0.16666667  0.16666667  0.00000000       0.010
   0.20833333  0.16666667  0.00000000       0.010
  -0.20833333  0.37500000  0.00000000       0.010
   0.25000000  0.16666667  0.00000000       0.010
  -0.25000000  0.41666667  0.00000000       0.010
   0.29166667  0.16666667  0.00000000       0.010
  -0.29166667  0.45833333  0.00000000       0.010
   0.33333333  0.16666667  0.00000000       0.010
  -0.33333333  0.50000000  0.00000000       0.010
   0.37500000  0.16666667  0.00000000       0.010
  -0.37500000 -0.45833333  0.00000000       0.010
   0.41666667  0.16666667  0.00000000       0.010
   0.20833333  0.20833333  0.00000000       0.010
   0.25000000  0.20833333  0.00000000       0.010
  -0.25000000  0.45833333  0.00000000       0.010
   0.29166667  0.20833333  0.00000000       0.010
  -0.29166667  0.50000000  0.00000000       0.010
   0.33333333  0.20833333  0.00000000       0.010
  -0.33333333 -0.45833333  0.00000000       0.010
   0.37500000  0.20833333  0.00000000       0.010
  -0.37500000 -0.41666667  0.00000000       0.010
   0.25000000  0.25000000  0.00000000       0.010
   0.29166667  0.25000000  0.00000000       0.010
  -0.29166667 -0.45833333  0.00000000       0.010
   0.33333333  0.25000000  0.00000000       0.010
  -0.33333333 -0.41666667  0.00000000       0.010
   0.37500000  0.25000000  0.00000000       0.010
   0.29166667  0.29166667  0.00000000       0.010
   0.33333333  0.29166667  0.00000000       0.010
  -0.33333333 -0.37500000  0.00000000       0.010
   0.33333333  0.33333333  0.00000000       0.003
 
 position of ions in fractional coordinates (direct lattice) 
   0.00000015  0.00000052  0.36177397
   0.66666644  0.33333317  0.36374328
   0.97265979  0.66752779  0.43914101
   0.33247242  0.30513333  0.43913969
   0.69486609  0.02734039  0.43914067
   0.97159542  0.30579475  0.28611106
   0.69420458  0.66580528  0.28611164
   0.33419514  0.02840475  0.28610993
 
 position of ions in cartesian coordinates  (Angst):
  -0.00000067  0.00000276  6.51831694
   3.09393999  1.78628561  6.55379930
   3.95341225  3.57718765  7.91228933
   1.11323554  1.63516664  7.91226561
   4.21515969  0.14651331  7.91228328
   5.06600670  1.63871111  5.15504909
   2.23569370  3.56795698  5.15505956
   1.98007742  0.15221708  5.15502886
 


--------------------------------------------------------------------------------------------------------


 k-point   1 :   0.0000 0.0000 0.0000  plane waves:   16159
 k-point   2 :   0.0417 0.0000 0.0000  plane waves:   16134
 k-point   3 :   0.0833 0.0000 0.0000  plane waves:   16122
 k-point   4 :   0.1250 0.0000 0.0000  plane waves:   16110
 k-point   5 :   0.1667 0.0000 0.0000  plane waves:   16122
 k-point   6 :   0.2083 0.0000 0.0000  plane waves:   16118
 k-point   7 :   0.2500 0.0000 0.0000  plane waves:   16114
 k-point   8 :   0.2917 0.0000 0.0000  plane waves:   16112
 k-point   9 :   0.3333 0.0000 0.0000  plane waves:   16110
 k-point  10 :   0.3750 0.0000 0.0000  plane waves:   16090
 k-point  11 :   0.4167 0.0000 0.0000  plane waves:   16064
 k-point  12 :   0.4583 0.0000 0.0000  plane waves:   16046
 k-point  13 :   0.5000 0.0000 0.0000  plane waves:   16056
 k-point  14 :   0.0417 0.0417 0.0000  plane waves:   16125
 k-point  15 :   0.0833 0.0417 0.0000  plane waves:   16117
 k-point  16 :  -0.0833 0.1250 0.0000  plane waves:   16117
 k-point  17 :   0.1250 0.0417 0.0000  plane waves:   16131
 k-point  18 :  -0.1250 0.1667 0.0000  plane waves:   16131
 k-point  19 :   0.1667 0.0417 0.0000  plane waves:   16126
 k-point  20 :  -0.1667 0.2083 0.0000  plane waves:   16126
 k-point  21 :   0.2083 0.0417 0.0000  plane waves:   16124
 k-point  22 :  -0.2083 0.2500 0.0000  plane waves:   16124
 k-point  23 :   0.2500 0.0417 0.0000  plane waves:   16127
 k-point  24 :  -0.2500 0.2917 0.0000  plane waves:   16127
 k-point  25 :   0.2917 0.0417 0.0000  plane waves:   16106
 k-point  26 :  -0.2917 0.3333 0.0000  plane waves:   16106
 k-point  27 :   0.3333 0.0417 0.0000  plane waves:   16098
 k-point  28 :  -0.3333 0.3750 0.0000  plane waves:   16098
 k-point  29 :   0.3750 0.0417 0.0000  plane waves:   16078
 k-point  30 :  -0.3750 0.4167 0.0000  plane waves:   16078
 k-point  31 :   0.4167 0.0417 0.0000  plane waves:   16047
 k-point  32 :  -0.4167 0.4583 0.0000  plane waves:   16047
 k-point  33 :   0.4583 0.0417 0.0000  plane waves:   16048
 k-point  34 :  -0.4583 0.5000 0.0000  plane waves:   16048
 k-point  35 :   0.0833 0.0833 0.0000  plane waves:   16119
 k-point  36 :   0.1250 0.0833 0.0000  plane waves:   16128
 k-point  37 :  -0.1250 0.2083 0.0000  plane waves:   16128
 k-point  38 :   0.1667 0.0833 0.0000  plane waves:   16107
 k-point  39 :  -0.1667 0.2500 0.0000  plane waves:   16107
 k-point  40 :   0.2083 0.0833 0.0000  plane waves:   16130
 k-point  41 :  -0.2083 0.2917 0.0000  plane waves:   16130
 k-point  42 :   0.2500 0.0833 0.0000  plane waves:   16112
 k-point  43 :  -0.2500 0.3333 0.0000  plane waves:   16112
 k-point  44 :   0.2917 0.0833 0.0000  plane waves:   16097
 k-point  45 :  -0.2917 0.3750 0.0000  plane waves:   16097
 k-point  46 :   0.3333 0.0833 0.0000  plane waves:   16094
 k-point  47 :  -0.3333 0.4167 0.0000  plane waves:   16094
 k-point  48 :   0.3750 0.0833 0.0000  plane waves:   16083
 k-point  49 :  -0.3750 0.4583 0.0000  plane waves:   16083
 k-point  50 :   0.4167 0.0833 0.0000  plane waves:   16050
 k-point  51 :  -0.4167 0.5000 0.0000  plane waves:   16050
 k-point  52 :   0.4583 0.0833 0.0000  plane waves:   16060
 k-point  53 :   0.1250 0.1250 0.0000  plane waves:   16113
 k-point  54 :   0.1667 0.1250 0.0000  plane waves:   16104
 k-point  55 :  -0.1667 0.2917 0.0000  plane waves:   16104
 k-point  56 :   0.2083 0.1250 0.0000  plane waves:   16101
 k-point  57 :  -0.2083 0.3333 0.0000  plane waves:   16101
 k-point  58 :   0.2500 0.1250 0.0000  plane waves:   16112
 k-point  59 :  -0.2500 0.3750 0.0000  plane waves:   16112
 k-point  60 :   0.2917 0.1250 0.0000  plane waves:   16103
 k-point  61 :  -0.2917 0.4167 0.0000  plane waves:   16103
 k-point  62 :   0.3333 0.1250 0.0000  plane waves:   16088
 k-point  63 :  -0.3333 0.4583 0.0000  plane waves:   16088
 k-point  64 :   0.3750 0.1250 0.0000  plane waves:   16062
 k-point  65 :  -0.3750 0.5000 0.0000  plane waves:   16062
 k-point  66 :   0.4167 0.1250 0.0000  plane waves:   16069
 k-point  67 :  -0.4167-0.4583 0.0000  plane waves:   16069
 k-point  68 :   0.1667 0.1667 0.0000  plane waves:   16101
 k-point  69 :   0.2083 0.1667 0.0000  plane waves:   16104
 k-point  70 :  -0.2083 0.3750 0.0000  plane waves:   16104
 k-point  71 :   0.2500 0.1667 0.0000  plane waves:   16102
 k-point  72 :  -0.2500 0.4167 0.0000  plane waves:   16102
 k-point  73 :   0.2917 0.1667 0.0000  plane waves:   16085
 k-point  74 :  -0.2917 0.4583 0.0000  plane waves:   16085
 k-point  75 :   0.3333 0.1667 0.0000  plane waves:   16074
 k-point  76 :  -0.3333 0.5000 0.0000  plane waves:   16074
 k-point  77 :   0.3750 0.1667 0.0000  plane waves:   16064
 k-point  78 :  -0.3750-0.4583 0.0000  plane waves:   16064
 k-point  79 :   0.4167 0.1667 0.0000  plane waves:   16082
 k-point  80 :   0.2083 0.2083 0.0000  plane waves:   16089
 k-point  81 :   0.2500 0.2083 0.0000  plane waves:   16084
 k-point  82 :  -0.2500 0.4583 0.0000  plane waves:   16084
 k-point  83 :   0.2917 0.2083 0.0000  plane waves:   16069
 k-point  84 :  -0.2917 0.5000 0.0000  plane waves:   16069
 k-point  85 :   0.3333 0.2083 0.0000  plane waves:   16054
 k-point  86 :  -0.3333-0.4583 0.0000  plane waves:   16054
 k-point  87 :   0.3750 0.2083 0.0000  plane waves:   16062
 k-point  88 :  -0.3750-0.4167 0.0000  plane waves:   16062
 k-point  89 :   0.2500 0.2500 0.0000  plane waves:   16054
 k-point  90 :   0.2917 0.2500 0.0000  plane waves:   16042
 k-point  91 :  -0.2917-0.4583 0.0000  plane waves:   16042
 k-point  92 :   0.3333 0.2500 0.0000  plane waves:   16045
 k-point  93 :  -0.3333-0.4167 0.0000  plane waves:   16045
 k-point  94 :   0.3750 0.2500 0.0000  plane waves:   16050
 k-point  95 :   0.2917 0.2917 0.0000  plane waves:   16036
 k-point  96 :   0.3333 0.2917 0.0000  plane waves:   16022
 k-point  97 :  -0.3333-0.3750 0.0000  plane waves:   16022
 k-point  98 :   0.3333 0.3333 0.0000  plane waves:   16020

 maximum and minimum number of plane-waves per node :     16159    16020

 maximum number of plane-waves:     16159
 maximum index in each direction: 
   IXMAX=   11   IYMAX=   11   IZMAX=   33
   IXMIN=  -12   IYMIN=  -12   IZMIN=  -33


 serial   3D FFT for wavefunctions
 parallel 3D FFT for charge:
    minimum data exchange during FFTs selected (reduces bandwidth)


 total amount of memory used by VASP MPI-rank0  2542168. kBytes
=======================================================================

   base      :      30000. kBytes
   nonl-proj :     458139. kBytes
   fftplans  :      88392. kBytes
   grid      :     233496. kBytes
   one-center:        248. kBytes
   wavefun   :    1731893. kBytes
 
     INWAV:  cpu time      0.0001: real time      0.0003
 Broyden mixing: mesh for mixing (old mesh)
   NGX = 23   NGY = 23   NGZ = 67
  (NGX  = 96   NGY  = 96   NGZ  =280)
  gives a total of  35443 points

 initial charge density was supplied:
 charge density of overlapping atoms calculated
 number of electron      58.0000000 magnetization      -0.0000000
 keeping initial charge density in first step


--------------------------------------------------------------------------------------------------------


 Maximum index for augmentation-charges         18643 (set IRDMAX)


--------------------------------------------------------------------------------------------------------


 First call to EWALD:  gamma=   0.210
 Maximum number of real-space cells 4x 4x 2
 Maximum number of reciprocal cells 2x 2x 5

    FEWALD:  cpu time      0.0008: real time      0.0008


--------------------------------------- Ionic step        1  -------------------------------------------




--------------------------------------- Iteration      1(   1)  ---------------------------------------


    POTLOK:  cpu time      0.0578: real time      0.0983
    SETDIJ:  cpu time      0.0307: real time      0.0309
     EDDAV:  cpu time      6.2355: real time      6.2945
       DOS:  cpu time      0.0041: real time      0.0041
    --------------------------------------------
      LOOP:  cpu time      6.3281: real time      6.4279

 eigenvalue-minimisations  : 13328
 total energy-change (2. order) : 0.5771662E+03  (-0.1982229E+04)
 number of electron      58.0000000 magnetization      -0.0000000
 augmentation part       58.0000000 magnetization      -0.0000000

 Free energy of the ion-electron system (eV)
  ---------------------------------------------------
  alpha Z        PSCENC =        34.34702241
  Ewald energy   TEWEN  =      5214.31349246
  -Hartree energ DENC   =     -8529.37505194
  -exchange      EXHF   =         0.00000000
  -V(xc)+E(xc)   XCENC  =       134.39582007
  PAW double counting   =      3052.26160663    -3045.71919405
  entropy T*S    EENTRO =        -0.00515901
  eigenvalues    EBANDS =        69.98096951
  atomic energy  EATOM  =      3646.96668234
  Solvation  Ediel_sol  =         0.00000000
  ---------------------------------------------------
  free energy    TOTEN  =       577.16618840 eV

  energy without entropy =      577.17134741  energy(sigma->0) =      577.16876791


--------------------------------------------------------------------------------------------------------




--------------------------------------- Iteration      1(   2)  ---------------------------------------


     EDDAV:  cpu time      8.1549: real time      8.1830
       DOS:  cpu time      0.0034: real time      0.0034
    --------------------------------------------
      LOOP:  cpu time      8.1584: real time      8.1864

 eigenvalue-minimisations  : 19914
 total energy-change (2. order) :-0.4872177E+03  (-0.4820452E+03)
 number of electron      58.0000000 magnetization      -0.0000000
 augmentation part       58.0000000 magnetization      -0.0000000

 Free energy of the ion-electron system (eV)
  ---------------------------------------------------
  alpha Z        PSCENC =        34.34702241
  Ewald energy   TEWEN  =      5214.31349246
  -Hartree energ DENC   =     -8529.37505194
  -exchange      EXHF   =         0.00000000
  -V(xc)+E(xc)   XCENC  =       134.39582007
  PAW double counting   =      3052.26160663    -3045.71919405
  entropy T*S    EENTRO =        -0.00058194
  eigenvalues    EBANDS =      -417.24134262
  atomic energy  EATOM  =      3646.96668234
  Solvation  Ediel_sol  =         0.00000000
  ---------------------------------------------------
  free energy    TOTEN  =        89.94845334 eV

  energy without entropy =       89.94903528  energy(sigma->0) =       89.94874431


--------------------------------------------------------------------------------------------------------




--------------------------------------- Iteration      1(   3)  ---------------------------------------


     EDDAV:  cpu time      6.7993: real time      6.8241
       DOS:  cpu time      0.0022: real time      0.0022
    --------------------------------------------
      LOOP:  cpu time      6.8015: real time      6.8263

 eigenvalue-minimisations  : 15518
 total energy-change (2. order) :-0.1238348E+03  (-0.1234920E+03)
 number of electron      58.0000000 magnetization      -0.0000000
 augmentation part       58.0000000 magnetization      -0.0000000

 Free energy of the ion-electron system (eV)
  ---------------------------------------------------
  alpha Z        PSCENC =        34.34702241
  Ewald energy   TEWEN  =      5214.31349246
  -Hartree energ DENC   =     -8529.37505194
  -exchange      EXHF   =         0.00000000
  -V(xc)+E(xc)   XCENC  =       134.39582007
  PAW double counting   =      3052.26160663    -3045.71919405
  entropy T*S    EENTRO =        -0.00000000
  eigenvalues    EBANDS =      -541.07672038
  atomic energy  EATOM  =      3646.96668234
  Solvation  Ediel_sol  =         0.00000000
  ---------------------------------------------------
  free energy    TOTEN  =       -33.88634248 eV

  energy without entropy =      -33.88634248  energy(sigma->0) =      -33.88634248


--------------------------------------------------------------------------------------------------------




--------------------------------------- Iteration      1(   4)  ---------------------------------------


     EDDAV:  cpu time      7.7756: real time      7.8035
       DOS:  cpu time      0.0022: real time      0.0022
    --------------------------------------------
      LOOP:  cpu time      7.7779: real time      7.8057

 eigenvalue-minimisations  : 18654
 total energy-change (2. order) :-0.6728043E+01  (-0.6722986E+01)
 number of electron      58.0000000 magnetization      -0.0000000
 augmentation part       58.0000000 magnetization      -0.0000000

 Free energy of the ion-electron system (eV)
  ---------------------------------------------------
  alpha Z        PSCENC =        34.34702241
  Ewald energy   TEWEN  =      5214.31349246
  -Hartree energ DENC   =     -8529.37505194
  -exchange      EXHF   =         0.00000000
  -V(xc)+E(xc)   XCENC  =       134.39582007
  PAW double counting   =      3052.26160663    -3045.71919405
  entropy T*S    EENTRO =        -0.00000000
  eigenvalues    EBANDS =      -547.80476316
  atomic energy  EATOM  =      3646.96668234
  Solvation  Ediel_sol  =         0.00000000
  ---------------------------------------------------
  free energy    TOTEN  =       -40.61438525 eV

  energy without entropy =      -40.61438525  energy(sigma->0) =      -40.61438525


--------------------------------------------------------------------------------------------------------




--------------------------------------- Iteration      1(   5)  ---------------------------------------


     EDDAV:  cpu time      7.9320: real time      7.9596
       DOS:  cpu time      0.0022: real time      0.0022
    CHARGE:  cpu time      0.8400: real time      0.8431
    MIXING:  cpu time      0.0294: real time      0.0295
    --------------------------------------------
      LOOP:  cpu time      8.8038: real time      8.8345

 eigenvalue-minimisations  : 18958
 total energy-change (2. order) :-0.1456166E+00  (-0.1455720E+00)
 number of electron      58.0000008 magnetization       0.0000000
 augmentation part        0.7749701 magnetization       0.0000093

 Broyden mixing:
  rms(total) = 0.22593E+01    rms(broyden)= 0.22593E+01
  rms(prec ) = 0.24714E+01
  weight for this iteration     100.00

 Free energy of the ion-electron system (eV)
  ---------------------------------------------------
  alpha Z        PSCENC =        34.34702241
  Ewald energy   TEWEN  =      5214.31349246
  -Hartree energ DENC   =     -8529.37505194
  -exchange      EXHF   =         0.00000000
  -V(xc)+E(xc)   XCENC  =       134.39582007
  PAW double counting   =      3052.26160663    -3045.71919405
  entropy T*S    EENTRO =        -0.00000000
  eigenvalues    EBANDS =      -547.95037976
  atomic energy  EATOM  =      3646.96668234
  Solvation  Ediel_sol  =         0.00000000
  ---------------------------------------------------
  free energy    TOTEN  =       -40.76000185 eV

  energy without entropy =      -40.76000185  energy(sigma->0) =      -40.76000185


--------------------------------------------------------------------------------------------------------




--------------------------------------- Iteration      1(   6)  ---------------------------------------


    POTLOK:  cpu time      0.0358: real time      0.0361
    SETDIJ:  cpu time      0.0311: real time      0.0312
     EDDAV:  cpu time      8.2174: real time      8.2458
       DOS:  cpu time      0.0031: real time      0.0031
    CHARGE:  cpu time      0.7846: real time      0.7870
    MIXING:  cpu time      0.0233: real time      0.0234
    --------------------------------------------
      LOOP:  cpu time      9.0953: real time      9.1266

 eigenvalue-minimisations  : 20360
 total energy-change (2. order) : 0.1074957E+02  (-0.5600695E+01)
 number of electron      58.0000009 magnetization       0.0000000
 augmentation part        3.7239347 magnetization       0.0000078

 Broyden mixing:
  rms(total) = 0.39176E+01    rms(broyden)= 0.39176E+01
  rms(prec ) = 0.39519E+01
  weight for this iteration     100.00

 eigenvalues of (default mixing * dielectric matrix)
  average eigenvalue GAMMA=   0.1054
  0.1054

 Free energy of the ion-electron system (eV)
  ---------------------------------------------------
  alpha Z        PSCENC =        34.34702241
  Ewald energy   TEWEN  =      5214.31349246
  -Hartree energ DENC   =     -8471.51604778
  -exchange      EXHF   =         0.00000000
  -V(xc)+E(xc)   XCENC  =       134.12519995
  PAW double counting   =      3348.91868149    -3338.37886299
  entropy T*S    EENTRO =        -0.00000005
  eigenvalues    EBANDS =      -598.78660101
  atomic energy  EATOM  =      3646.96668234
  Solvation  Ediel_sol  =         0.00000000
  ---------------------------------------------------
  free energy    TOTEN  =       -30.01043318 eV

  energy without entropy =      -30.01043313  energy(sigma->0) =      -30.01043315


--------------------------------------------------------------------------------------------------------




--------------------------------------- Iteration      1(   7)  ---------------------------------------


    POTLOK:  cpu time      0.0274: real time      0.0279
    SETDIJ:  cpu time      0.0310: real time      0.0311
     EDDAV:  cpu time      7.0744: real time      7.0989
       DOS:  cpu time      0.0024: real time      0.0024
    CHARGE:  cpu time      0.8006: real time      0.8035
    MIXING:  cpu time      0.0252: real time      0.0253
    --------------------------------------------
      LOOP:  cpu time      7.9609: real time      7.9891

 eigenvalue-minimisations  : 16498
 total energy-change (2. order) :-0.5087611E+00  (-0.1193703E+01)
 number of electron      58.0000009 magnetization       0.0000001
 augmentation part        3.0914127 magnetization       0.0000223

 Broyden mixing:
  rms(total) = 0.26710E+01    rms(broyden)= 0.26710E+01
  rms(prec ) = 0.26841E+01
  weight for this iteration     100.00

 eigenvalues of (default mixing * dielectric matrix)
  average eigenvalue GAMMA=   0.5117
  0.5117  0.5117

 Free energy of the ion-electron system (eV)
  ---------------------------------------------------
  alpha Z        PSCENC =        34.34702241
  Ewald energy   TEWEN  =      5214.31349246
  -Hartree energ DENC   =     -8477.67611091
  -exchange      EXHF   =         0.00000000
  -V(xc)+E(xc)   XCENC  =       133.41452272
  PAW double counting   =      3421.17938267    -3413.24323416
  entropy T*S    EENTRO =        -0.00000000
  eigenvalues    EBANDS =      -589.82095183
  atomic energy  EATOM  =      3646.96668234
  Solvation  Ediel_sol  =         0.00000000
  ---------------------------------------------------
  free energy    TOTEN  =       -30.51919430 eV

  energy without entropy =      -30.51919430  energy(sigma->0) =      -30.51919430


--------------------------------------------------------------------------------------------------------




--------------------------------------- Iteration      1(   8)  ---------------------------------------


    POTLOK:  cpu time      0.0357: real time      0.0362
    SETDIJ:  cpu time      0.0313: real time      0.0314
     EDDAV:  cpu time      7.3522: real time      7.3795
       DOS:  cpu time      0.0028: real time      0.0028
    CHARGE:  cpu time      0.7772: real time      0.7800
    MIXING:  cpu time      0.0249: real time      0.0250
    --------------------------------------------
      LOOP:  cpu time      8.2240: real time      8.2549

 eigenvalue-minimisations  : 17744
 total energy-change (2. order) : 0.1189071E+00  (-0.1743761E+00)
 number of electron      58.0000009 magnetization       0.0000002
 augmentation part        2.9839366 magnetization       0.0002770

 Broyden mixing:
  rms(total) = 0.22930E+01    rms(broyden)= 0.22930E+01
  rms(prec ) = 0.23021E+01
  weight for this iteration     100.00

 eigenvalues of (default mixing * dielectric matrix)
  average eigenvalue GAMMA=   0.8962
  0.3365  1.1110  1.2410

 Free energy of the ion-electron system (eV)
  ---------------------------------------------------
  alpha Z        PSCENC =        34.34702241
  Ewald energy   TEWEN  =      5214.31349246
  -Hartree energ DENC   =     -8467.40944664
  -exchange      EXHF   =         0.00000000
  -V(xc)+E(xc)   XCENC  =       134.81778162
  PAW double counting   =      3818.51550191    -3812.00924129
  entropy T*S    EENTRO =        -0.00000000
  eigenvalues    EBANDS =      -599.94208003
  atomic energy  EATOM  =      3646.96668234
  Solvation  Ediel_sol  =         0.00000000
  ---------------------------------------------------
  free energy    TOTEN  =       -30.40028723 eV

  energy without entropy =      -30.40028723  energy(sigma->0) =      -30.40028723


--------------------------------------------------------------------------------------------------------




--------------------------------------- Iteration      1(   9)  ---------------------------------------


    POTLOK:  cpu time      0.0254: real time      0.0261
    SETDIJ:  cpu time      0.0309: real time      0.0311
     EDDAV:  cpu time      7.5731: real time      7.5997
       DOS:  cpu time      0.0028: real time      0.0028
    CHARGE:  cpu time      0.7981: real time      0.8008
    MIXING:  cpu time      0.0265: real time      0.0266
    --------------------------------------------
      LOOP:  cpu time      8.4569: real time      8.4872

 eigenvalue-minimisations  : 18114
 total energy-change (2. order) :-0.2017585E+00  (-0.5765904E-01)
 number of electron      58.0000009 magnetization       0.0000002
 augmentation part        3.0835437 magnetization      -0.0002952

 Broyden mixing:
  rms(total) = 0.11386E+01    rms(broyden)= 0.11386E+01
  rms(prec ) = 0.11743E+01
  weight for this iteration     100.00

 eigenvalues of (default mixing * dielectric matrix)
  average eigenvalue GAMMA=   1.0135
  1.5118  1.5118  0.3599  0.6705

 Free energy of the ion-electron system (eV)
  ---------------------------------------------------
  alpha Z        PSCENC =        34.34702241
  Ewald energy   TEWEN  =      5214.31349246
  -Hartree energ DENC   =     -8454.24460803
  -exchange      EXHF   =         0.00000000
  -V(xc)+E(xc)   XCENC  =       134.29499640
  PAW double counting   =      4382.40386057    -4381.92821856
  entropy T*S    EENTRO =        -0.00000000
  eigenvalues    EBANDS =      -606.75527333
  atomic energy  EATOM  =      3646.96668234
  Solvation  Ediel_sol  =         0.00000000
  ---------------------------------------------------
  free energy    TOTEN  =       -30.60204574 eV

  energy without entropy =      -30.60204574  energy(sigma->0) =      -30.60204574


--------------------------------------------------------------------------------------------------------




--------------------------------------- Iteration      1(  10)  ---------------------------------------


    POTLOK:  cpu time      0.0356: real time      0.0360
    SETDIJ:  cpu time      0.0313: real time      0.0314
     EDDAV:  cpu time      6.2226: real time      6.2436
       DOS:  cpu time      0.0027: real time      0.0027
    CHARGE:  cpu time      0.7753: real time      0.7781
    MIXING:  cpu time      0.0263: real time      0.0264
    --------------------------------------------
      LOOP:  cpu time      7.0937: real time      7.1180

 eigenvalue-minimisations  : 13988
 total energy-change (2. order) : 0.3732298E+00  (-0.1481573E+00)
 number of electron      58.0000009 magnetization       0.0000002
 augmentation part        2.6030052 magnetization       0.0002953

 Broyden mixing:
  rms(total) = 0.39558E+00    rms(broyden)= 0.39557E+00
  rms(prec ) = 0.40108E+00
  weight for this iteration     100.00

 eigenvalues of (default mixing * dielectric matrix)
  average eigenvalue GAMMA=   1.0123
  1.3864  1.3864  1.2480  0.3589  0.6818

 Free energy of the ion-electron system (eV)
  ---------------------------------------------------
  alpha Z        PSCENC =        34.34702241
  Ewald energy   TEWEN  =      5214.31349246
  -Hartree energ DENC   =     -8468.35259514
  -exchange      EXHF   =         0.00000000
  -V(xc)+E(xc)   XCENC  =       133.00873123
  PAW double counting   =      4271.37503701    -4272.63303553
  entropy T*S    EENTRO =        -0.00000000
  eigenvalues    EBANDS =      -589.25415071
  atomic energy  EATOM  =      3646.96668234
  Solvation  Ediel_sol  =         0.00000000
  ---------------------------------------------------
  free energy    TOTEN  =       -30.22881594 eV

  energy without entropy =      -30.22881594  energy(sigma->0) =      -30.22881594


--------------------------------------------------------------------------------------------------------




--------------------------------------- Iteration      1(  11)  ---------------------------------------


    POTLOK:  cpu time      0.0253: real time      0.0257
    SETDIJ:  cpu time      0.0322: real time      0.0323
     EDDAV:  cpu time      7.4824: real time      7.5081
       DOS:  cpu time      0.0027: real time      0.0027
    CHARGE:  cpu time      0.7948: real time      0.7973
    MIXING:  cpu time      0.0376: real time      0.0377
    --------------------------------------------
      LOOP:  cpu time      8.3749: real time      8.4040

 eigenvalue-minimisations  : 18006
 total energy-change (2. order) : 0.1017071E-01  (-0.1829029E-01)
 number of electron      58.0000009 magnetization       0.0000002
 augmentation part        2.5409290 magnetization      -0.0001201

 Broyden mixing:
  rms(total) = 0.30349E+00    rms(broyden)= 0.30348E+00
  rms(prec ) = 0.30597E+00
  weight for this iteration     100.00

 eigenvalues of (default mixing * dielectric matrix)
  average eigenvalue GAMMA=   1.2175
  2.7239  1.4301  1.4301  0.3583  0.6813  0.6813

 Free energy of the ion-electron system (eV)
  ---------------------------------------------------
  alpha Z        PSCENC =        34.34702241
  Ewald energy   TEWEN  =      5214.31349246
  -Hartree energ DENC   =     -8470.03752446
  -exchange      EXHF   =         0.00000000
  -V(xc)+E(xc)   XCENC  =       133.48260320
  PAW double counting   =      4317.94825875    -4320.12922012
  entropy T*S    EENTRO =        -0.00000000
  eigenvalues    EBANDS =      -587.10995981
  atomic energy  EATOM  =      3646.96668234
  Solvation  Ediel_sol  =         0.00000000
  ---------------------------------------------------
  free energy    TOTEN  =       -30.21864523 eV

  energy without entropy =      -30.21864523  energy(sigma->0) =      -30.21864523


--------------------------------------------------------------------------------------------------------




--------------------------------------- Iteration      1(  12)  ---------------------------------------


    POTLOK:  cpu time      0.0335: real time      0.0339
    SETDIJ:  cpu time      0.0314: real time      0.0315
     EDDAV:  cpu time      7.6064: real time      7.6324
       DOS:  cpu time      0.0027: real time      0.0027
    CHARGE:  cpu time      0.7824: real time      0.7851
    MIXING:  cpu time      0.0364: real time      0.0365
    --------------------------------------------
      LOOP:  cpu time      8.4929: real time      8.5222

 eigenvalue-minimisations  : 18424
 total energy-change (2. order) :-0.3220716E-01  (-0.1369894E-01)
 number of electron      58.0000009 magnetization       0.0000002
 augmentation part        2.6727169 magnetization      -0.0000530

 Broyden mixing:
  rms(total) = 0.24002E+00    rms(broyden)= 0.24002E+00
  rms(prec ) = 0.25398E+00
  weight for this iteration     100.00

 eigenvalues of (default mixing * dielectric matrix)
  average eigenvalue GAMMA=   1.1635
  2.3476  1.6261  1.6261  0.3581  0.7334  0.7266  0.7266

 Free energy of the ion-electron system (eV)
  ---------------------------------------------------
  alpha Z        PSCENC =        34.34702241
  Ewald energy   TEWEN  =      5214.31349246
  -Hartree energ DENC   =     -8471.02113479
  -exchange      EXHF   =         0.00000000
  -V(xc)+E(xc)   XCENC  =       133.69093156
  PAW double counting   =      4377.99700221    -4380.84889788
  entropy T*S    EENTRO =        -0.00000000
  eigenvalues    EBANDS =      -585.69595069
  atomic energy  EATOM  =      3646.96668234
  Solvation  Ediel_sol  =         0.00000000
  ---------------------------------------------------
  free energy    TOTEN  =       -30.25085239 eV

  energy without entropy =      -30.25085239  energy(sigma->0) =      -30.25085239


--------------------------------------------------------------------------------------------------------




--------------------------------------- Iteration      1(  13)  ---------------------------------------


    POTLOK:  cpu time      0.0272: real time      0.0276
    SETDIJ:  cpu time      0.0315: real time      0.0316
     EDDAV:  cpu time      6.8834: real time      6.9093
       DOS:  cpu time      0.0028: real time      0.0028
    CHARGE:  cpu time      0.7937: real time      0.7964
    MIXING:  cpu time      0.0396: real time      0.0398
    --------------------------------------------
      LOOP:  cpu time      7.7781: real time      7.8075

 eigenvalue-minimisations  : 15940
 total energy-change (2. order) : 0.2581104E-01  (-0.1207693E-01)
 number of electron      58.0000008 magnetization       0.0000002
 augmentation part        2.5266694 magnetization       0.0000472

 Broyden mixing:
  rms(total) = 0.32362E-01    rms(broyden)= 0.32347E-01
  rms(prec ) = 0.33222E-01
  weight for this iteration     100.00

 eigenvalues of (default mixing * dielectric matrix)
  average eigenvalue GAMMA=   1.1311
  2.1411  1.6674  1.6674  0.3581  0.9343  0.9343  0.6732  0.6732

 Free energy of the ion-electron system (eV)
  ---------------------------------------------------
  alpha Z        PSCENC =        34.34702241
  Ewald energy   TEWEN  =      5214.31349246
  -Hartree energ DENC   =     -8474.33811276
  -exchange      EXHF   =         0.00000000
  -V(xc)+E(xc)   XCENC  =       133.32170690
  PAW double counting   =      4330.47151734    -4333.38973215
  entropy T*S    EENTRO =        -0.00000000
  eigenvalues    EBANDS =      -581.91761789
  atomic energy  EATOM  =      3646.96668234
  Solvation  Ediel_sol  =         0.00000000
  ---------------------------------------------------
  free energy    TOTEN  =       -30.22504135 eV

  energy without entropy =      -30.22504135  energy(sigma->0) =      -30.22504135


--------------------------------------------------------------------------------------------------------




--------------------------------------- Iteration      1(  14)  ---------------------------------------


    POTLOK:  cpu time      0.0336: real time      0.0344
    SETDIJ:  cpu time      0.0315: real time      0.0316
     EDDAV:  cpu time      7.1555: real time      7.1800
       DOS:  cpu time      0.0027: real time      0.0028
    CHARGE:  cpu time      0.7831: real time      0.7855
    MIXING:  cpu time      0.0306: real time      0.0307
    --------------------------------------------
      LOOP:  cpu time      8.0371: real time      8.0650

 eigenvalue-minimisations  : 16880
 total energy-change (2. order) :-0.3750901E-02  (-0.1641343E-02)
 number of electron      58.0000008 magnetization       0.0000002
 augmentation part        2.5037974 magnetization      -0.0000326

 Broyden mixing:
  rms(total) = 0.16542E-01    rms(broyden)= 0.16533E-01
  rms(prec ) = 0.17623E-01
  weight for this iteration     100.00

 eigenvalues of (default mixing * dielectric matrix)
  average eigenvalue GAMMA=   1.1102
  2.3048  1.6834  1.6834  0.9935  0.9935  0.3581  0.6744  0.6744  0.6268

 Free energy of the ion-electron system (eV)
  ---------------------------------------------------
  alpha Z        PSCENC =        34.34702241
  Ewald energy   TEWEN  =      5214.31349246
  -Hartree energ DENC   =     -8474.68646941
  -exchange      EXHF   =         0.00000000
  -V(xc)+E(xc)   XCENC  =       133.25595000
  PAW double counting   =      4319.24480435    -4322.15095444
  entropy T*S    EENTRO =        -0.00000000
  eigenvalues    EBANDS =      -581.51931997
  atomic energy  EATOM  =      3646.96668234
  Solvation  Ediel_sol  =         0.00000000
  ---------------------------------------------------
  free energy    TOTEN  =       -30.22879225 eV

  energy without entropy =      -30.22879225  energy(sigma->0) =      -30.22879225


--------------------------------------------------------------------------------------------------------




--------------------------------------- Iteration      1(  15)  ---------------------------------------


    POTLOK:  cpu time      0.0274: real time      0.0283
    SETDIJ:  cpu time      0.0312: real time      0.0313
     EDDAV:  cpu time      6.6845: real time      6.7076
       DOS:  cpu time      0.0028: real time      0.0028
    CHARGE:  cpu time      0.7749: real time      0.7773
    MIXING:  cpu time      0.0400: real time      0.0402
    --------------------------------------------
      LOOP:  cpu time      7.5608: real time      7.5875

 eigenvalue-minimisations  : 15280
 total energy-change (2. order) :-0.3597275E-03  (-0.1396136E-03)
 number of electron      58.0000008 magnetization       0.0000003
 augmentation part        2.5086552 magnetization       0.0000329

 Broyden mixing:
  rms(total) = 0.13805E-01    rms(broyden)= 0.13804E-01
  rms(prec ) = 0.14325E-01
  weight for this iteration     100.00

 eigenvalues of (default mixing * dielectric matrix)
  average eigenvalue GAMMA=   1.1279
  2.4641  1.6565  1.6565  1.1190  1.0000  1.0000  0.3581  0.7010  0.7010  0.6227

 Free energy of the ion-electron system (eV)
  ---------------------------------------------------
  alpha Z        PSCENC =        34.34702241
  Ewald energy   TEWEN  =      5214.31349246
  -Hartree energ DENC   =     -8474.46817357
  -exchange      EXHF   =         0.00000000
  -V(xc)+E(xc)   XCENC  =       133.25630917
  PAW double counting   =      4318.58406148    -4321.50468519
  entropy T*S    EENTRO =        -0.00000000
  eigenvalues    EBANDS =      -581.72386107
  atomic energy  EATOM  =      3646.96668234
  Solvation  Ediel_sol  =         0.00000000
  ---------------------------------------------------
  free energy    TOTEN  =       -30.22915197 eV

  energy without entropy =      -30.22915197  energy(sigma->0) =      -30.22915197


--------------------------------------------------------------------------------------------------------




--------------------------------------- Iteration      1(  16)  ---------------------------------------


    POTLOK:  cpu time      0.0253: real time      0.0259
    SETDIJ:  cpu time      0.0311: real time      0.0312
     EDDAV:  cpu time      8.0431: real time      8.0700
       DOS:  cpu time      0.0028: real time      0.0028
    CHARGE:  cpu time      0.8045: real time      0.8072
    MIXING:  cpu time      0.0360: real time      0.0362
    --------------------------------------------
      LOOP:  cpu time      8.9429: real time      8.9732

 eigenvalue-minimisations  : 19924
 total energy-change (2. order) :-0.1713565E-03  (-0.2243756E-04)
 number of electron      58.0000008 magnetization       0.0000003
 augmentation part        2.5129177 magnetization       0.0000349

 Broyden mixing:
  rms(total) = 0.56753E-02    rms(broyden)= 0.56752E-02
  rms(prec ) = 0.59414E-02
  weight for this iteration     100.00

[...]
      2     -18.8733      1.00000
      3     -18.5956      1.00000
      4     -18.5077      1.00000
      5     -18.4501      1.00000
      6     -18.4271      1.00000
      7     -11.2438      1.00000
      8     -11.1907      1.00000
      9     -11.0903      1.00000
     10     -11.0839      1.00000
     11     -11.0743      1.00000
     12      -9.0559      1.00000
     13      -8.5460      1.00000
     14      -8.1787      1.00000
     15      -8.0173      1.00000
     16      -7.8676      1.00000
     17      -7.4158      1.00000
     18      -7.1531      1.00000
     19      -7.1114      1.00000
     20      -6.9882      1.00000
     21      -6.6760      1.00000
     22      -6.4201      1.00000
     23      -6.0938      1.00000
     24      -6.0334      1.00000
     25      -5.9469      1.00000
     26      -5.7832      1.00000
     27      -5.6830      1.00000
     28      -5.3929      1.00000
     29      -5.3220      1.00000
     30      -3.2355      0.00000
     31      -3.2012      0.00000
     32      -3.1378      0.00000
     33      -3.1240      0.00000
     34      -3.0511      0.00000

 k-point    96 :       0.3333    0.2917    0.0000
  band No.  band energies     occupation 
      1     -18.9719      1.00000
      2     -18.9033      1.00000
      3     -18.5988      1.00000
      4     -18.5019      1.00000
      5     -18.4536      1.00000
      6     -18.4291      1.00000
      7     -11.2454      1.00000
      8     -11.1905      1.00000
      9     -11.0890      1.00000
     10     -11.0818      1.00000
     11     -11.0769      1.00000
     12      -9.0398      1.00000
     13      -8.5556      1.00000
     14      -8.1703      1.00000
     15      -8.0063      1.00000
     16      -7.8914      1.00000
     17      -7.4066      1.00000
     18      -7.1531      1.00000
     19      -7.1281      1.00000
     20      -6.9756      1.00000
     21      -6.6796      1.00000
     22      -6.4250      1.00000
     23      -6.0945      1.00000
     24      -6.0444      1.00000
     25      -5.9332      1.00000
     26      -5.7867      1.00000
     27      -5.6784      1.00000
     28      -5.3948      1.00000
     29      -5.3162      1.00000
     30      -3.2334      0.00000
     31      -3.1986      0.00000
     32      -3.1389      0.00000
     33      -3.1262      0.00000
     34      -3.0503      0.00000

 k-point    97 :      -0.3333   -0.3750    0.0000
  band No.  band energies     occupation 
      1     -18.9719      1.00000
      2     -18.9033      1.00000
      3     -18.5988      1.00000
      4     -18.5019      1.00000
      5     -18.4536      1.00000
      6     -18.4291      1.00000
      7     -11.2454      1.00000
      8     -11.1905      1.00000
      9     -11.0890      1.00000
     10     -11.0817      1.00000
     11     -11.0770      1.00000
     12      -9.0398      1.00000
     13      -8.5556      1.00000
     14      -8.1703      1.00000
     15      -8.0063      1.00000
     16      -7.8914      1.00000
     17      -7.4065      1.00000
     18      -7.1532      1.00000
     19      -7.1281      1.00000
     20      -6.9757      1.00000
     21      -6.6793      1.00000
     22      -6.4251      1.00000
     23      -6.0947      1.00000
     24      -6.0443      1.00000
     25      -5.9333      1.00000
     26      -5.7867      1.00000
     27      -5.6784      1.00000
     28      -5.3948      1.00000
     29      -5.3162      1.00000
     30      -3.2334      0.00000
     31      -3.1986      0.00000
     32      -3.1388      0.00000
     33      -3.1263      0.00000
     34      -3.0504      0.00000

 k-point    98 :       0.3333    0.3333    0.0000
  band No.  band energies     occupation 
      1     -18.9408      1.00000
      2     -18.9334      1.00000
      3     -18.6006      1.00000
      4     -18.4996      1.00000
      5     -18.4544      1.00000
      6     -18.4303      1.00000
      7     -11.2461      1.00000
      8     -11.1903      1.00000
      9     -11.0867      1.00000
     10     -11.0821      1.00000
     11     -11.0786      1.00000
     12      -9.0314      1.00000
     13      -8.5611      1.00000
     14      -8.1627      1.00000
     15      -8.0038      1.00000
     16      -7.9051      1.00000
     17      -7.4032      1.00000
     18      -7.1628      1.00000
     19      -7.1242      1.00000
     20      -6.9722      1.00000
     21      -6.6769      1.00000
     22      -6.4306      1.00000
     23      -6.0737      1.00000
     24      -6.0652      1.00000
     25      -5.9293      1.00000
     26      -5.7898      1.00000
     27      -5.6773      1.00000
     28      -5.3949      1.00000
     29      -5.3130      1.00000
     30      -3.2317      0.00000
     31      -3.1960      0.00000
     32      -3.1392      0.00000
     33      -3.1289      0.00000
     34      -3.0502      0.00000


--------------------------------------------------------------------------------------------------------


 soft charge-density along one line, spin component            1
         0         1         2         3         4         5         6         7         8         9
 total charge-density along one line
 
 soft charge-density along one line, spin component            2
         0         1         2         3         4         5         6         7         8         9
 total charge-density along one line
 
 pseudopotential strength for first ion, spin component:            1
-16.048   0.021   0.000  -0.000   0.000 -16.362   0.017   0.000
  0.021 -16.031  -0.000  -0.000  -0.000   0.017 -16.348  -0.000
  0.000  -0.000 -16.069  -0.000  -0.000   0.000  -0.000 -16.381
 -0.000  -0.000  -0.000 -16.031  -0.021  -0.000  -0.000  -0.000
  0.000  -0.000  -0.000  -0.021 -16.048   0.000  -0.000  -0.000
-16.362   0.017   0.000  -0.000   0.000 -16.657   0.013   0.000
  0.017 -16.348  -0.000  -0.000  -0.000   0.013 -16.646  -0.000
  0.000  -0.000 -16.381  -0.000  -0.000   0.000  -0.000 -16.672
 -0.000  -0.000  -0.000 -16.348  -0.017  -0.000  -0.000  -0.000
  0.000  -0.000  -0.000  -0.017 -16.362   0.000  -0.000  -0.000
  0.000   0.000   0.001   0.000  -0.000   0.000   0.000   0.001
  0.000   0.000   0.001   0.000  -0.000   0.000   0.000   0.001
 -0.000   0.000  -0.000  -0.000   0.001  -0.000   0.000  -0.000
 -0.000   0.000   0.001  -0.000  -0.000  -0.000   0.000   0.001
  0.001  -0.000   0.000   0.000   0.000   0.001  -0.000   0.000
 -0.000   0.000  -0.000  -0.000   0.002  -0.000   0.000  -0.000
 -0.000   0.000   0.001  -0.000  -0.000  -0.000   0.000   0.001
  0.002  -0.000   0.000   0.000   0.000   0.002  -0.000   0.000
 pseudopotential strength for first ion, spin component:            2
-10.424  -0.516   0.000   0.006   0.000 -10.774  -0.523   0.000
 -0.516 -10.809  -0.000  -0.000   0.006  -0.523 -11.165  -0.000
  0.000  -0.000 -10.022  -0.000  -0.000   0.000  -0.000 -10.367
  0.006  -0.000  -0.000 -10.809   0.516   0.006  -0.000  -0.000
  0.000   0.006  -0.000   0.516 -10.424   0.000   0.006  -0.000
-10.774  -0.523   0.000   0.006   0.000 -11.076  -0.534   0.000
 -0.523 -11.165  -0.000  -0.000   0.006  -0.534 -11.474  -0.000
  0.000  -0.000 -10.367  -0.000  -0.000   0.000  -0.000 -10.659
  0.006  -0.000  -0.000 -11.165   0.523   0.006  -0.000  -0.000
  0.000   0.006  -0.000   0.523 -10.774   0.000   0.006  -0.000
  0.000   0.000   0.000   0.000  -0.000   0.000   0.000   0.000
  0.000   0.000   0.000   0.000  -0.000   0.000   0.000   0.000
  0.000   0.001  -0.000  -0.000  -0.002   0.000   0.001  -0.000
 -0.000   0.000   0.001  -0.000  -0.000  -0.000   0.000   0.001
 -0.002  -0.000   0.000   0.001  -0.000  -0.002  -0.000   0.000
  0.000   0.001  -0.000  -0.000  -0.002   0.000   0.001  -0.000
 -0.000   0.000   0.001  -0.000  -0.000  -0.000   0.000   0.001
 -0.002  -0.000   0.000   0.001  -0.000  -0.002  -0.000   0.000
 total augmentation occupancy for first ion, spin component:            1
  6.976   2.230  -0.000  -0.021   0.000  -4.786  -2.170   0.000   0.021  -0.000  -0.000   0.000   0.015   0.000  -0.082  -0.001
  2.230   8.521   0.000   0.000  -0.021  -2.170  -6.279  -0.000  -0.000   0.021   0.000   0.000   0.015   0.000   0.006  -0.000
 -0.000   0.000   5.296   0.000  -0.000   0.000  -0.000  -3.145  -0.000   0.000   0.033  -0.003   0.000  -0.008   0.000  -0.000
 -0.021   0.000   0.000   8.521  -2.230   0.021   0.000  -0.000  -6.279   2.170   0.000   0.000  -0.006  -0.000   0.015  -0.000
  0.000  -0.021  -0.000  -2.230   6.976   0.000   0.021   0.000   2.170  -4.786  -0.000   0.000  -0.082   0.000  -0.015   0.006
 -4.786  -2.170   0.000   0.021   0.000   3.838   2.241  -0.000  -0.022   0.000   0.000  -0.000  -0.017  -0.000   0.092   0.001
 -2.170  -6.279  -0.000   0.000   0.021   2.241   5.376   0.000   0.000  -0.022   0.000  -0.000  -0.017   0.000  -0.009   0.001
  0.000  -0.000  -3.145  -0.000   0.000  -0.000   0.000   2.134   0.000  -0.000  -0.039   0.005  -0.000   0.009  -0.000   0.000
  0.021  -0.000  -0.000  -6.279   2.170  -0.022   0.000   0.000   5.376  -2.241  -0.000  -0.000   0.009   0.000  -0.017   0.000
 -0.000   0.021   0.000   2.170  -4.786   0.000  -0.022  -0.000  -2.241   3.838   0.000  -0.000   0.092  -0.000   0.017  -0.009
 -0.000   0.000   0.033   0.000  -0.000   0.000   0.000  -0.039  -0.000   0.000   1.481  -0.140   0.000  -0.006  -0.000   0.000
  0.000   0.000  -0.003   0.000   0.000  -0.000  -0.000   0.005  -0.000  -0.000  -0.140   0.030   0.000   0.001  -0.000  -0.000
  0.015   0.015   0.000  -0.006  -0.082  -0.017  -0.017  -0.000   0.009   0.092   0.000   0.000   0.222   0.000   0.000  -0.020
  0.000   0.000  -0.008  -0.000   0.000  -0.000   0.000   0.009   0.000  -0.000  -0.006   0.001   0.000   0.218  -0.000  -0.000
 -0.082   0.006   0.000   0.015  -0.015   0.092  -0.009  -0.000  -0.017   0.017  -0.000  -0.000   0.000  -0.000   0.222  -0.000
 -0.001  -0.000  -0.000  -0.000   0.006   0.001   0.001   0.000   0.000  -0.009   0.000   0.000  -0.020  -0.000  -0.000   0.003
 -0.000   0.000   0.001   0.000  -0.000   0.000   0.000  -0.001  -0.000   0.000   0.001  -0.000  -0.000  -0.019  -0.000   0.000
  0.006   0.000  -0.000  -0.000   0.001  -0.009  -0.000   0.000   0.001  -0.001  -0.000   0.000   0.000  -0.000  -0.020   0.000
 total augmentation occupancy for first ion, spin component:            2
  6.654   1.960  -0.000  -0.019   0.000  -4.292  -1.802   0.000   0.018  -0.000  -0.000  -0.000   0.009   0.000  -0.035   0.001
  1.960   8.022   0.000   0.000  -0.019  -1.802  -5.555  -0.000   0.000   0.018   0.000  -0.000   0.009  -0.000   0.014   0.001
 -0.000   0.000   5.174   0.000  -0.000   0.000  -0.000  -2.931  -0.000   0.000   0.006   0.002   0.000  -0.005   0.000   0.000
 -0.019   0.000   0.000   8.022  -1.960   0.018  -0.000  -0.000  -5.555   1.802   0.000   0.000  -0.014   0.000   0.009   0.000
  0.000  -0.019  -0.000  -1.960   6.654   0.000   0.018   0.000   1.802  -4.292  -0.000  -0.000  -0.035   0.000  -0.009  -0.001
 -4.292  -1.802   0.000   0.018   0.000   2.862   1.526  -0.000  -0.015   0.000   0.000   0.000  -0.006  -0.000   0.021  -0.001
 -1.802  -5.555  -0.000  -0.000   0.018   1.526   3.932   0.000   0.000  -0.015  -0.000   0.000  -0.007   0.000  -0.009  -0.001
  0.000  -0.000  -2.931  -0.000   0.000  -0.000   0.000   1.713   0.000  -0.000  -0.002  -0.001  -0.000   0.003  -0.000  -0.000
  0.018   0.000  -0.000  -5.555   1.802  -0.015   0.000   0.000   3.932  -1.526  -0.000  -0.000   0.009  -0.000  -0.007  -0.000
 -0.000   0.018   0.000   1.802  -4.292   0.000  -0.015  -0.000  -1.526   2.862   0.000   0.000   0.021  -0.000   0.006   0.001
 -0.000   0.000   0.006   0.000  -0.000   0.000  -0.000  -0.002  -0.000   0.000  -0.255   0.105   0.000   0.001  -0.000   0.000
 -0.000  -0.000   0.002   0.000  -0.000   0.000   0.000  -0.001  -0.000   0.000   0.105  -0.012   0.000  -0.000  -0.000   0.000
  0.009   0.009   0.000  -0.014  -0.035  -0.006  -0.007  -0.000   0.009   0.021   0.000   0.000  -0.005   0.000  -0.000   0.006
  0.000  -0.000  -0.005   0.000   0.000  -0.000   0.000   0.003  -0.000  -0.000   0.001  -0.000   0.000  -0.003   0.000   0.000
 -0.035   0.014   0.000   0.009  -0.009   0.021  -0.009  -0.000  -0.007   0.006  -0.000  -0.000  -0.000   0.000  -0.005   0.000
  0.001   0.001   0.000   0.000  -0.001  -0.001  -0.001  -0.000  -0.000   0.001   0.000   0.000   0.006   0.000   0.000  -0.001
 -0.000  -0.000   0.000   0.000  -0.000   0.000   0.000  -0.000  -0.000   0.000  -0.000   0.000  -0.000   0.006  -0.000  -0.000
 -0.001  -0.000   0.000   0.001  -0.001   0.001   0.000  -0.000  -0.001   0.001  -0.000  -0.000  -0.000  -0.000   0.006  -0.000


------------------------ aborting loop because EDIFF is reached ----------------------------------------


    CHARGE:  cpu time      1.0123: real time      1.0166
    FORLOC:  cpu time      0.0079: real time      0.0079
    FORNL :  cpu time      6.3746: real time      6.3953
    STRESS:  cpu time     18.1650: real time     18.2290
    FORCOR:  cpu time      0.0347: real time      0.0349
    FORHAR:  cpu time      0.0057: real time      0.0057
    MIXING:  cpu time      0.0329: real time      0.0330
    OFIELD:  cpu time      0.0000: real time      0.0000

 ---------------------------------------------------------------------------------------------

         DFTD3 V3.0 Rev 1        
 Edisp (eV)   -0.74514

 E6    (eV) :    -0.2777
 E8    (eV) :    -0.4674
 % E8        : 62.73
    FORVDW:  cpu time      0.0075: real time      0.0076

  FORCE on cell =-STRESS in cart. coord.  units (eV):
  Direction    XX          YY          ZZ          XY          YZ          ZX
  --------------------------------------------------------------------------------------
  Alpha Z    34.38789    34.38789    34.38789
  Ewald    7077.66714  7077.66187 -8945.25349     0.00128     0.00070    -0.00045
  Hartree  7889.41578  7889.41535 -7309.87880    -0.00009    -0.00005     0.00014
  E(xc)    -235.98966  -235.98967  -236.28101    -0.00000    -0.00000     0.00000
  Local  -16010.26630-16010.26113 15207.53044    -0.00071    -0.00038     0.00005
  n-local   452.63408   453.01194   452.49257    -0.15802     0.07364    -0.08436
  augment   -34.87578   -34.87562   -35.25018    -0.00014    -0.00005     0.00004
  Kinetic   826.26745   825.91753   831.05950     0.07497    -0.02361    -0.04797
  Fock        0.00000     0.00000     0.00000     0.00000     0.00000     0.00000
  vdW         0.95388     0.95390     1.26714    -0.00001    -0.00001     0.00001
  -------------------------------------------------------------------------------------
  Total       0.20826     0.20826     0.07407    -0.00000     0.00000     0.00000
  in kB       0.55914     0.55914     0.19885    -0.00000     0.00000     0.00000
  external pressure =        0.44 kB  Pullay stress =        0.00 kB


 VOLUME and BASIS-vectors are now :
 -----------------------------------------------------------------------------
  energy-cutoff  :      520.00
  volume of cell :      596.76
      direct lattice vectors                 reciprocal lattice vectors
     6.186491106  0.000000003  0.000000000     0.161642518  0.093324409 -0.000000000
    -3.093245551  5.357655154  0.000000000    -0.000000000  0.186648818  0.000000000
     0.000000000  0.000000000 18.004329323    -0.000000000 -0.000000000  0.055542197

  length of vectors
     6.186491106  6.186488244 18.004329323     0.186648731  0.186648818  0.055542197


 FORCES acting on ions
    electron-ion (+dipol)            ewald-force                    non-local-force                 convergence-correction
 -----------------------------------------------------------------------------------------------
   0.304E-04 -.905E-04 0.556E+01   0.212E-03 -.520E-03 -.564E+01   0.434E-18 0.867E-18 0.134E+00   -.115E-05 -.141E-05 -.167E-01
   0.282E-04 0.190E-04 -.583E+01   0.256E-03 -.513E-04 0.595E+01   0.000E+00 0.000E+00 -.842E-01   -.143E-05 -.329E-05 -.702E-01
   -.857E+02 -.139E+01 -.497E+03   0.872E+02 0.140E+01 0.500E+03   -.166E+01 -.312E-01 -.247E+01   -.391E-02 0.136E-01 -.305E-01
   0.440E+02 -.735E+02 -.497E+03   -.448E+02 0.748E+02 0.500E+03   0.859E+00 -.143E+01 -.247E+01   -.981E-02 -.102E-01 -.305E-01
   0.416E+02 0.749E+02 -.497E+03   -.424E+02 -.762E+02 0.500E+03   0.805E+00 0.146E+01 -.247E+01   0.137E-01 -.340E-02 -.305E-01
   -.417E+02 -.748E+02 0.497E+03   0.425E+02 0.762E+02 -.500E+03   -.796E+00 -.145E+01 0.247E+01   -.979E-02 0.312E-02 0.146E-02
   0.857E+02 0.128E+01 0.497E+03   -.872E+02 -.131E+01 -.500E+03   0.165E+01 0.353E-01 0.247E+01   0.219E-02 -.100E-01 0.146E-02
   -.439E+02 0.735E+02 0.497E+03   0.447E+02 -.749E+02 -.500E+03   -.858E+00 0.141E+01 0.247E+01   0.759E-02 0.691E-02 0.146E-02
 -----------------------------------------------------------------------------------------------
   0.609E-01 -.345E-01 0.149E+00   0.142E-13 0.142E-13 -.568E-13   0.111E-15 0.222E-15 0.276E-01   -.629E-06 -.578E-05 -.174E+00
 
 
 POSITION                                       TOTAL-FORCE (eV/Angst)
 -----------------------------------------------------------------------------------
     -0.00000      0.00000      6.51278        -0.000000     -0.000000      0.014341
      3.09324      1.78588      6.54615        -0.000000     -0.000000     -0.008648
      3.95319      3.57525      7.90722         0.023321     -0.001123      0.035147
      1.11363      1.63595      7.90719        -0.010688      0.020758      0.035147
      4.21289      0.14647      7.90721        -0.012633     -0.019635      0.035147
      5.06574      1.63817      5.15164         0.027917      0.015303     -0.037045
      2.23490      3.56800      5.15165        -0.027211      0.016525     -0.037045
      1.97904      0.15151      5.15161        -0.000706     -0.031828     -0.037045
 -----------------------------------------------------------------------------------
    total drift:                                0.060873     -0.034486      0.002689


--------------------------------------------------------------------------------------------------------



  FREE ENERGIE OF THE ION-ELECTRON SYSTEM (eV)
  ---------------------------------------------------
  free  energy   TOTEN  =       -30.97571146 eV

  energy  without entropy=      -30.97571146  energy(sigma->0) =      -30.97571146
 
 d Force = 0.7535824E-04[ 0.651E-04, 0.856E-04]  d Energy =-0.1613438E-04 0.915E-04
 d Force = 0.3100847E+00[ 0.310E+00, 0.310E+00]  d Ewald  = 0.1641297E+01-0.133E+01


--------------------------------------------------------------------------------------------------------


    POTLOK:  cpu time      0.0883: real time      0.0918


--------------------------------------------------------------------------------------------------------




--------------------------------------------------------------------------------------------------------


  
 reached required accuracy - stopping structural energy minimisation
     LOOP+:  cpu time     46.8194: real time     46.9961
    4ORBIT:  cpu time      0.0000: real time      0.0000

 total amount of memory used by VASP MPI-rank0  2542168. kBytes
=======================================================================

   base      :      30000. kBytes
   nonl-proj :     458139. kBytes
   fftplans  :      88392. kBytes
   grid      :     233496. kBytes
   one-center:        248. kBytes
   wavefun   :    1731893. kBytes
 
  
  
 General timing and accounting informations for this job:
 ========================================================
  
                  Total CPU time used (sec):      321.672
                            User time (sec):      315.972
                          System time (sec):        5.699
                         Elapsed time (sec):      324.453
  
                   Maximum memory used (kb):     4270360.
                   Average memory used (kb):          N/A
  
                          Minor page faults:      4746561
                          Major page faults:            0
                 Voluntary context switches:        11699
