 vasp.6.4.3 19Mar24 (build Jul 08 2025 21:20:34) complex                        
  
 executed on             LinuxIFC date 2025.10.30  12:19:33
 running   32 mpi-ranks, on    1 nodes
 distrk:  each k-point on   32 cores,    1 groups
 distr:  one band on NCORE=   1 cores,   32 groups


--------------------------------------------------------------------------------------------------------


 INCAR:
   ISTART = 1            (Read existing wavefunction, if there)
   LREAL = .FALSE.       (Projection operators: automatic)
   ENCUT = 500        (Cut-off energy for plane wave basis set, in eV)
   PREC = Accurate   (Precision level: Normal or Accurate, set Accurate when perform structure lattice relaxation calculation)
   LWAVE = .FALSE.        (Write WAVECAR or not)
   LCHARG = .FALSE.        (Write CHGCAR or not)
   ADDGRID = .TRUE.        (Increase grid, helps GGA convergence)
   LASPH = .TRUE.        (Give more accurate total energies and band structure calculations)
   PREC = Accurate      (Accurate strictly avoids any aliasing or wrap around errors)
   ISMEAR = 0            (Gaussian smearing, metals:1)
   SIGMA = 0.05         (Smearing value in eV, metals:0.2)
   NELM = 90           (Max electronic SCF steps)
   NELMIN = 6            (Min electronic SCF steps)
   EDIFF = 1E-06        (SCF energy convergence, in eV)
   NSW = 0          (Max ionic steps)
   IBRION = 2            (Algorithm: 0-MD, 1-Quasi-New, 2-CG)
   EDIFFG = -2E-02        (Ionic convergence, eV/AA)
   ISPIN = 2
   MAGMOM = 5.0 -5.0 0.0 0.0 0.0 0.0 0.0 0.0
   LDAU = .TRUE.
   LDAUTYPE = 2
   LDAUL = 2 -1
   LDAUU = 4.5 0.0
   LDAUJ = 0.9 0.0

 POTCAR:    PAW_PBE Fe 06Sep2000                  
 POTCAR:    PAW_PBE Cl 06Sep2000                  
 -----------------------------------------------------------------------------
|                                                                             |
|           W    W    AA    RRRRR   N    N  II  N    N   GGGG   !!!           |
|           W    W   A  A   R    R  NN   N  II  NN   N  G    G  !!!           |
|           W    W  A    A  R    R  N N  N  II  N N  N  G       !!!           |
|           W WW W  AAAAAA  RRRRR   N  N N  II  N  N N  G  GGG   !            |
|           WW  WW  A    A  R   R   N   NN  II  N   NN  G    G                |
|           W    W  A    A  R    R  N    N  II  N    N   GGGG   !!!           |
|                                                                             |
|     For optimal performance we recommend to set                             |
|       NCORE = 2 up to number-of-cores-per-socket                            |
|     NCORE specifies how many cores store one orbital (NPAR=cpu/NCORE).      |
|     This setting can greatly improve the performance of VASP for DFT.       |
|     The default, NCORE=1 might be grossly inefficient on modern             |
|     multi-core architectures or massively parallel machines. Do your        |
|     own testing! More info at https://www.vasp.at/wiki/index.php/NCORE      |
|     Unfortunately you need to use the default for GW and RPA                |
|     calculations (for HF NCORE is supported but not extensively tested      |
|     yet).                                                                   |
|                                                                             |
 -----------------------------------------------------------------------------

 POTCAR:    PAW_PBE Fe 06Sep2000                  
   SHA256 =  cd5a22d9368cc8b5cc476bea79732366149640da08ac9009b0e1b7fc627eea28 Fe/POTCAR             
   COPYR  = (c) Copyright 06Sep2000 Georg Kresse                                                    
   COPYR  = This file is part of the software VASP. Any use, copying, and all other rights are regul
   COPYR  = If you do not have a valid VASP license, you may not use, copy or distribute this file. 
   VRHFIN =Fe:  d7 s1                                                                               
   LEXCH  = PE                                                                                      
   EATOM  =   594.3153 eV,   43.6809 Ry                                                             
                                                                                                    
   TITEL  = PAW_PBE Fe 06Sep2000                                                                    
   LULTRA =        F    use ultrasoft PP ?                                                          
   IUNSCR =        1    unscreen: 0-lin 1-nonlin 2-no                                               
   RPACOR =    2.000    partial core radius                                                         
   POMASS =   55.847; ZVAL   =    8.000    mass and valenz                                          
   RCORE  =    2.300    outmost cutoff radius                                                       
   RWIGS  =    2.460; RWIGS  =    1.302    wigner-seitz radius (au A)                               
   ENMAX  =  267.882; ENMIN  =  200.911 eV                                                          
   RCLOC  =    1.701    cutoff for local pot                                                        
   LCOR   =        T    correct aug charges                                                         
   LPAW   =        T    paw PP                                                                      
   EAUG   =  511.368                                                                                
   DEXC   =    0.000                                                                                
   RMAX   =    2.356    core radius for proj-oper                                                   
   RAUG   =    1.300    factor for augmentation sphere                                              
   RDEP   =    2.442    radius for radial grids                                                     
   RDEPT  =    1.890    core radius for aug-charge                                                  
                                                                                                    
   Atomic configuration                                                                             
    9 entries                                                                                       
     n  l   j            E        occ.                                                              
     1  0  0.50     -6993.8440   2.0000                                                             
     2  0  0.50      -814.6047   2.0000                                                             
     2  1  1.50      -693.3689   6.0000                                                             
     3  0  0.50       -89.4732   2.0000                                                             
     3  1  1.50       -55.6373   6.0000                                                             
     3  2  2.50        -3.8151   7.0000                                                             
     4  0  0.50        -4.2551   1.0000                                                             
     4  1  1.50        -3.4015   0.0000                                                             
     4  3  2.50        -1.3606   0.0000                                                             
   Description                                                                                      
     l       E           TYP  RCUT    TYP  RCUT                                                     
     2     -3.8151135     23  2.300                                                                 
     2     -5.1756961     23  2.300                                                                 
     0     -4.2550963     23  2.300                                                                 
     0      7.2035603     23  2.300                                                                 
     1     -2.7211652     23  2.300                                                                 
     1     18.4316424     23  2.300                                                                 
  local pseudopotential read in
  partial core-charges read in
  partial kinetic energy density read in
  atomic valenz-charges read in
  non local Contribution for L=           2  read in
    real space projection operators read in
  non local Contribution for L=           2  read in
    real space projection operators read in
  non local Contribution for L=           0  read in
    real space projection operators read in
  non local Contribution for L=           0  read in
    real space projection operators read in
  non local Contribution for L=           1  read in
    real space projection operators read in
  non local Contribution for L=           1  read in
    real space projection operators read in
    PAW grid and wavefunctions read in
 
   number of l-projection  operators is LMAX  =           6
   number of lm-projection operators is LMMAX =          18
 
 POTCAR:    PAW_PBE Cl 06Sep2000                  
   SHA256 =  9f1b6e6ed4247ac726a768b330d26d7667cc3c95a39ff49c1d064c2d9dcce931 Cl/POTCAR             
   COPYR  = (c) Copyright 06Sep2000 Georg Kresse                                                    
   COPYR  = This file is part of the software VASP. Any use, copying, and all other rights are regul
   COPYR  = If you do not have a valid VASP license, you may not use, copy or distribute this file. 
   VRHFIN =Cl: s2p5                                                                                 
   LEXCH  = PE                                                                                      
   EATOM  =   409.7259 eV,   30.1140 Ry                                                             
                                                                                                    
   TITEL  = PAW_PBE Cl 06Sep2000                                                                    
   LULTRA =        F    use ultrasoft PP ?                                                          
   IUNSCR =        1    unscreen: 0-lin 1-nonlin 2-no                                               
   RPACOR =    1.500    partial core radius                                                         
   POMASS =   35.453; ZVAL   =    7.000    mass and valenz                                          
   RCORE  =    1.900    outmost cutoff radius                                                       
   RWIGS  =    2.100; RWIGS  =    1.111    wigner-seitz radius (au A)                               
   ENMAX  =  262.472; ENMIN  =  196.854 eV                                                          
   ICORE  =        2    local potential                                                             
   LCOR   =        T    correct aug charges                                                         
   LPAW   =        T    paw PP                                                                      
   EAUG   =  356.192                                                                                
   DEXC   =    0.000                                                                                
   RMAX   =    1.945    core radius for proj-oper                                                   
   RAUG   =    1.300    factor for augmentation sphere                                              
   RDEP   =    2.020    radius for radial grids                                                     
   RDEPT  =    1.678    core radius for aug-charge                                                  
                                                                                                    
   Atomic configuration                                                                             
    6 entries                                                                                       
     n  l   j            E        occ.                                                              
     1  0  0.50     -2751.1850   2.0000                                                             
     2  0  0.50      -252.6861   2.0000                                                             
     2  1  1.50      -191.6157   6.0000                                                             
     3  0  0.50       -20.6916   2.0000                                                             
     3  1  0.50        -8.5949   5.0000                                                             
     3  2  1.50        -8.1635   0.0000                                                             
   Description                                                                                      
     l       E           TYP  RCUT    TYP  RCUT                                                     
     0    -20.6915656     23  1.900                                                                 
     0    -22.0521482     23  1.900                                                                 
     1     -8.5948577     23  1.900                                                                 
     1     -5.3847331     23  1.900                                                                 
     2     -8.1634956     23  1.900                                                                 
  local pseudopotential read in
  partial core-charges read in
  partial kinetic energy density read in
  atomic valenz-charges read in
  non local Contribution for L=           0  read in
    real space projection operators read in
  non local Contribution for L=           0  read in
    real space projection operators read in
  non local Contribution for L=           1  read in
    real space projection operators read in
  non local Contribution for L=           1  read in
    real space projection operators read in
    PAW grid and wavefunctions read in
 
   number of l-projection  operators is LMAX  =           4
   number of lm-projection operators is LMMAX =           8
 
  PAW_PBE Fe 06Sep2000                  :
 energy of atom  1       EATOM= -594.3153
 kinetic energy error for atom=    0.0026 (will be added to EATOM!!)
  PAW_PBE Cl 06Sep2000                  :
 energy of atom  2       EATOM= -409.7259
 kinetic energy error for atom=    0.0030 (will be added to EATOM!!)
 
 
 POSCAR: Fe Cl
  positions in direct lattice
  velocities in cartesian coordinates


 exchange-correlation table for PE
   RHO(1)=    0.500       N(1)  =     2000
   RHO(2)=  100.500       N(2)  =     4000
 


--------------------------------------------------------------------------------------------------------


 ion  position               nearest neighbor table
   1  1.000  1.000  0.226-   8 2.40   7 2.40   6 2.40   3 2.40   4 2.40   5 2.40
   2  0.667  0.333  0.226-   5 2.40   3 2.40   4 2.40   6 2.40   8 2.40   7 2.40
   3  0.968  0.667  0.274-   2 2.40   1 2.40
   4  0.333  0.301  0.274-   2 2.40   1 2.40
   5  0.699  0.032  0.274-   2 2.40   1 2.40
   6  0.966  0.300  0.179-   1 2.40   2 2.40
   7  0.700  0.666  0.179-   1 2.40   2 2.40
   8  0.334  0.034  0.179-   1 2.40   2 2.40
 
  LATTYP: Found a hexagonal cell.
 ALAT       =     6.1818200000
 C/A-ratio  =     4.6673795096
  
  Lattice vectors:
  
 A1 = (   6.1818200000,   0.0000000000,   0.0000000000)
 A2 = (  -3.0909100000,   5.3536100000,   0.0000000000)
 A3 = (   0.0000000000,   0.0000000000,  28.8529000000)


Analysis of symmetry for initial positions (statically):
=====================================================================
 Subroutine PRICEL returns:
 Original cell was already a primitive cell.
 

 Routine SETGRP: Setting up the symmetry group for a 
 hexagonal supercell.


 Subroutine GETGRP returns: Found  3 space group operations
 (whereof  3 operations were pure point group operations)
 out of a pool of 24 trial point group operations.


The static configuration has the point symmetry C_3 .


Analysis of symmetry for dynamics (positions and initial velocities):
=====================================================================
 Subroutine PRICEL returns:
 Original cell was already a primitive cell.
 

 Routine SETGRP: Setting up the symmetry group for a 
 hexagonal supercell.


 Subroutine GETGRP returns: Found  3 space group operations
 (whereof  3 operations were pure point group operations)
 out of a pool of 24 trial point group operations.


The dynamic configuration has the point symmetry C_3 .


Analysis of structural, dynamic, and magnetic symmetry:
=====================================================================
 Subroutine PRICEL returns:
 Original cell was already a primitive cell.
 

 Routine SETGRP: Setting up the symmetry group for a 
 hexagonal supercell.


 Subroutine GETGRP returns: Found  3 space group operations
 (whereof  3 operations were pure point group operations)
 out of a pool of 24 trial point group operations.


The overall configuration has the point symmetry C_3 .


 Subroutine INISYM returns: Found  3 space group operations
 (whereof  3 operations are pure point group operations),
 and found     1 'primitive' translations


----------------------------------------------------------------------------------------

                                     Primitive cell                                     

  volume of cell :     954.8883

  direct lattice vectors                    reciprocal lattice vectors
     6.181820000  0.000000000  0.000000000     0.161764658  0.093394924  0.000000000
    -3.090910000  5.353610000  0.000000000     0.000000000  0.186789848  0.000000000
     0.000000000  0.000000000 28.852900000     0.000000000  0.000000000  0.034658561

  length of vectors
     6.181820000  6.181817262 28.852900000     0.186789766  0.186789848  0.034658561

  position of ions in fractional coordinates (direct lattice)
     0.999999607  0.999999610  0.226050024
     0.666668417  0.333332378  0.226493853
     0.968189654  0.667052416  0.273914136
     0.332947780  0.301137252  0.273914104
     0.698862377  0.031809697  0.273914306
     0.966467753  0.300279849  0.178561078
     0.699720439  0.666195907  0.178561443
     0.333803972  0.033532890  0.178561056

  ion indices of the primitive-cell ions
   primitive index   ion index
                 1           1
                 2           2
                 3           3
                 4           4
                 5           5
                 6           6
                 7           7
                 8           8

----------------------------------------------------------------------------------------

 
 
 KPOINTS: K-Spacing Value to Generate K-Mesh: 0.04

Automatic generation of k-mesh.
 Grid dimensions read from file:
 generate k-points for:   14   14    1

 Generating k-lattice:

  Cartesian coordinates                     Fractional coordinates (reciprocal lattice)
     0.011554618  0.006671066  0.000000000     0.071428571 -0.000000000  0.000000000
     0.000000000  0.013342132  0.000000000     0.000000000  0.071428571  0.000000000
     0.000000000  0.000000000  0.034658561     0.000000000  0.000000000  1.000000000

  Length of vectors
     0.013342126  0.013342132  0.034658561

  Shift w.r.t. Gamma in fractional coordinates (k-lattice)
     0.000000000  0.000000000  0.000000000

 
 Subroutine IBZKPT returns following result:
 ===========================================
 
 Found     34 irreducible k-points:
 
 Following reciprocal coordinates:
            Coordinates               Weight
  0.000000  0.000000  0.000000      1.000000
  0.071429  0.000000  0.000000      6.000000
  0.142857  0.000000  0.000000      6.000000
  0.214286  0.000000  0.000000      6.000000
  0.285714  0.000000  0.000000      6.000000
  0.357143  0.000000  0.000000      6.000000
  0.428571  0.000000  0.000000      6.000000
  0.500000  0.000000  0.000000      3.000000
  0.071429  0.071429  0.000000      6.000000
  0.142857  0.071429  0.000000      6.000000
 -0.142857  0.214286  0.000000      6.000000
  0.214286  0.071429  0.000000      6.000000
 -0.214286  0.285714  0.000000      6.000000
  0.285714  0.071429  0.000000      6.000000
 -0.285714  0.357143  0.000000      6.000000
  0.357143  0.071429  0.000000      6.000000
 -0.357143  0.428571  0.000000      6.000000
  0.428571  0.071429  0.000000      6.000000
 -0.428571  0.500000  0.000000      6.000000
  0.142857  0.142857  0.000000      6.000000
  0.214286  0.142857  0.000000      6.000000
 -0.214286  0.357143  0.000000      6.000000
  0.285714  0.142857  0.000000      6.000000
 -0.285714  0.428571  0.000000      6.000000
  0.357143  0.142857  0.000000      6.000000
 -0.357143  0.500000  0.000000      6.000000
  0.428571  0.142857  0.000000      6.000000
  0.214286  0.214286  0.000000      6.000000
  0.285714  0.214286  0.000000      6.000000
 -0.285714  0.500000  0.000000      6.000000
  0.357143  0.214286  0.000000      6.000000
 -0.357143 -0.428571  0.000000      6.000000
  0.285714  0.285714  0.000000      6.000000
  0.357143  0.285714  0.000000      6.000000
 
 Following cartesian coordinates:
            Coordinates               Weight
  0.000000  0.000000  0.000000      1.000000
  0.011555  0.006671  0.000000      6.000000
  0.023109  0.013342  0.000000      6.000000
  0.034664  0.020013  0.000000      6.000000
  0.046218  0.026684  0.000000      6.000000
  0.057773  0.033355  0.000000      6.000000
  0.069328  0.040026  0.000000      6.000000
  0.080882  0.046697  0.000000      3.000000
  0.011555  0.020013  0.000000      6.000000
  0.023109  0.026684  0.000000      6.000000
 -0.023109  0.026684  0.000000      6.000000
  0.034664  0.033355  0.000000      6.000000
 -0.034664  0.033355  0.000000      6.000000
  0.046218  0.040026  0.000000      6.000000
 -0.046218  0.040026  0.000000      6.000000
  0.057773  0.046697  0.000000      6.000000
 -0.057773  0.046697  0.000000      6.000000
  0.069328  0.053369  0.000000      6.000000
 -0.069328  0.053369  0.000000      6.000000
  0.023109  0.040026  0.000000      6.000000
  0.034664  0.046697  0.000000      6.000000
 -0.034664  0.046697  0.000000      6.000000
  0.046218  0.053369  0.000000      6.000000
 -0.046218  0.053369  0.000000      6.000000
  0.057773  0.060040  0.000000      6.000000
 -0.057773  0.060040  0.000000      6.000000
  0.069328  0.066711  0.000000      6.000000
  0.034664  0.060040  0.000000      6.000000
  0.046218  0.066711  0.000000      6.000000
 -0.046218  0.066711  0.000000      6.000000
  0.057773  0.073382  0.000000      6.000000
 -0.057773 -0.113408  0.000000      6.000000
  0.046218  0.080053  0.000000      6.000000
  0.057773  0.086724  0.000000      6.000000
 


--------------------------------------------------------------------------------------------------------




 Dimension of arrays:
   k-points           NKPTS =     34   k-points in BZ     NKDIM =     34   number of bands    NBANDS=     64
   number of dos      NEDOS =    301   number of ions     NIONS =      8
   non local maximal  LDIM  =      6   non local SUM 2l+1 LMDIM =     18
   total plane-waves  NPLWV = 483840
   max r-space proj   IRMAX =      1   max aug-charges    IRDMAX= 144579
   dimension x,y,z NGX =    48 NGY =   48 NGZ =  210
   dimension x,y,z NGXF=    96 NGYF=   96 NGZF=  420
   support grid    NGXF=   192 NGYF=  192 NGZF=  840
   ions per type =               2   6
   NGX,Y,Z   is equivalent  to a cutoff of  12.91, 12.91, 12.10 a.u.
   NGXF,Y,Z  is equivalent  to a cutoff of  25.82, 25.82, 24.20 a.u.

 SYSTEM =  unknown system                          
 POSCAR =  Fe Cl                                   

 Startparameter for this run:
   NWRITE =      2    write-flag & timer
   PREC   = accura    normal or accurate (medium, high low for compatibility)
   ISTART =      0    job   : 0-new  1-cont  2-samecut
   ICHARG =      2    charge: 1-file 2-atom 10-const
   ISPIN  =      2    spin polarized calculation?
   LNONCOLLINEAR =      F non collinear calculations
   LSORBIT =      F    spin-orbit coupling
   INIWAV =      1    electr: 0-lowe 1-rand  2-diag
   LASPH  =      T    aspherical Exc in radial PAW
 Electronic Relaxation 1
   ENCUT  =  500.0 eV  36.75 Ry    6.06 a.u.  11.27 11.27 52.61*2*pi/ulx,y,z
   ENINI  =  500.0     initial cutoff
   ENAUG  =  511.4 eV  augmentation charge cutoff
   NELM   =     90;   NELMIN=  6; NELMDL=  0     # of ELM steps 
   EDIFF  = 0.1E-05   stopping-criterion for ELM
   LREAL  =      F    real-space projection
   NLSPLINE    = F    spline interpolate recip. space projectors
   LCOMPAT=      F    compatible to vasp.4.4
   GGA_COMPAT  = T    GGA compatible to vasp.4.4-vasp.4.6
   LMAXPAW     = -100 max onsite density
   LMAXMIX     =    2 max onsite mixed and CHGCAR
   VOSKOWN=      0    Vosko Wilk Nusair interpolation
   ROPT   =    0.00000   0.00000
 Ionic relaxation
   EDIFFG = -.2E-01   stopping-criterion for IOM
   NSW    =      0    number of steps for IOM
   NBLOCK =      1;   KBLOCK =      1    inner block; outer block 
   IBRION =     -1    ionic relax: 0-MD 1-quasi-New 2-CG
   NFREE  =      1    steps in history (QN), initial steepest desc. (CG)
   ISIF   =      2    stress and relaxation
   IWAVPR =     10    prediction:  0-non 1-charg 2-wave 3-comb
   ISYM   =      2    0-nonsym 1-usesym 2-fastsym
   LCORR  =      T    Harris-Foulkes like correction to forces

   POTIM  = 0.5000    time-step for ionic-motion
   TEIN   =    0.0    initial temperature
   TEBEG  =    0.0;   TEEND  =   0.0 temperature during run
   SMASS  =  -3.00    Nose mass-parameter (am)
   estimated Nose-frequenzy (Omega)   =  0.10E-29 period in steps = 0.13E+47 mass=  -0.873E-27a.u.
   SCALEE = 1.0000    scale energy and forces
   NPACO  =    256;   APACO  = 10.0  distance and # of slots for P.C.
   PSTRESS=    0.0 pullay stress

  Mass of Ions in am
   POMASS =  55.85 35.45
  Ionic Valenz
   ZVAL   =   8.00  7.00
  Atomic Wigner-Seitz radii
   RWIGS  =  -1.00 -1.00
  virtual crystal weights 
   VCA    =   1.00  1.00
   NELECT =      58.0000    total number of electrons
   NUPDOWN=      -1.0000    fix difference up-down

 DOS related values:
   EMIN   =  10.00;   EMAX   =-10.00  energy-range for DOS
   EFERMI =   0.00;   METHOD = LEGACY      
   ISMEAR =     0;   SIGMA  =   0.05  broadening in eV -4-tet -1-fermi 0-gaus

 Electronic relaxation 2 (details)
   IALGO  =     38    algorithm
   LDIAG  =      T    sub-space diagonalisation (order eigenvalues)
   LSUBROT=      F    optimize rotation matrix (better conditioning)
   TURBO    =      0    0=normal 1=particle mesh
   IRESTART =      0    0=no restart 2=restart with 2 vectors
   NREBOOT  =      0    no. of reboots
   NMIN     =      0    reboot dimension
   EREF     =   0.00    reference energy to select bands
   IMIX   =      4    mixing-type and parameters
     AMIX     =   0.40;   BMIX     =  1.00
     AMIX_MAG =   1.60;   BMIX_MAG =  1.00
     AMIN     =   0.10
     WC   =   100.;   INIMIX=   1;  MIXPRE=   1;  MAXMIX= -45

 Intra band minimization:
   WEIMIN = 0.0000     energy-eigenvalue tresh-hold
   EBREAK =  0.39E-08  absolut break condition
   DEPER  =   0.30     relativ break condition  

   TIME   =   0.40     timestep for ELM

  volume/ion in A,a.u.               =     119.36       805.49
  Fermi-wavevector in a.u.,A,eV,Ry     =   0.643527  1.216089  5.634537  0.414127
  Thomas-Fermi vector in A             =   1.710556
 
 Write flags
   LWAVE        =      F    write WAVECAR
   LDOWNSAMPLE  =      F    k-point downsampling of WAVECAR
   LCHARG       =      F    write CHGCAR
   LVTOT        =      F    write LOCPOT, total local potential
   LVHAR        =      F    write LOCPOT, Hartree potential only
   WRT_POTENTIAL= false  ! write potential to hdf5 file
   LELF         =      F    write electronic localiz. function (ELF)
   LORBIT       =      0    0 simple, 1 ext, 2 COOP (PROOUT), +10 PAW based schemes


 Dipole corrections
   LMONO      =      F    monopole corrections only (constant potential shift)
   LDIPOL     =      F    correct potential (dipole corrections)
   IDIPOL     =      0    1-x, 2-y, 3-z, 4-all directions 
   EPSILON    =  1.0000000 bulk dielectric constant
   LVACPOTAV  =      F  vacuum potentials using an averaging scheme for the charge density
   VACPOTFLAT =  0.1000000 required flatness to determine vacuum potential
 LDA+U is selected, type is set to LDAUTYPE =  2
   angular momentum for each species LDAUL =     2   -1
   U (eV)           for each species LDAUU =   4.5  0.0
   J (eV)           for each species LDAUJ =   0.9  0.0
 Exchange correlation treatment:
   GGA     = PE    functional components
   XC_C    = 1    coefficients multiplying the functional components
   LIBXC   =     F    Libxc                    
   VOSKOWN =     0    Vosko Wilk Nusair interpolation
   LHFCALC =     F    Hartree Fock is set to
   LHFONE  =     F    Hartree Fock one center treatment
   AEXX    =    0.0000 exact exchange contribution

 Parameters of functionals:
   PE:
     No parameter
 
 Van der Waals corrections
   IVDW    =     0    specifies the selected vdW correction

 Linear response parameters
   LEPSILON=     F    determine dielectric tensor
   LRPA    =     F    only Hartree local field effects (RPA)
   LNABLA  =     F    use nabla operator in PAW spheres
   LVEL    =     F    velocity operator in full k-point grid
   CSHIFT  =0.1000    complex shift for real part using Kramers Kronig
   OMEGAMAX=  -1.0    maximum frequency
   DEG_THRESHOLD= 0.2000000E-02 threshold for treating states as degnerate
   RTIME   =   -0.100 relaxation time in fs
  (WPLASMAI=    0.000 imaginary part of plasma frequency in eV, 0.658/RTIME)
   DFIELD  = 0.0000000 0.0000000 0.0000000 field for delta impulse in time
 
  Optional k-point grid parameters
   LKPOINTS_OPT  =     F    use optional k-point grid
   KPOINTS_OPT_MODE=     1    mode for optional k-point grid
 
 Orbital magnetization related:
   ORBITALMAG=     F  switch on orbital magnetization
   LCHIMAG   =     F  perturbation theory with respect to B field
   DQ        =  0.001000  dq finite difference perturbation B field
   LLRAUG    =     F  two centre corrections for induced B field
   LBONE     =     F  B-component reconstruction in AE one-centre
   LVGVCALC  =     T  calculate vGv susceptibility
   LVGVAPPL  =     F  apply vGv susceptibility instead of pGv for G=0

 Random number generation:
   RANDOM_GENERATOR = DEFAULT
   PCG_SEED         = not used


--------------------------------------------------------------------------------------------------------


 Static calculation
 charge density and potential will be updated during run
 spin polarized calculation
 Variant of blocked Davidson
 Davidson routine will perform the subspace rotation
 perform sub-space diagonalisation
    after iterative eigenvector-optimisation
 modified Broyden-mixing scheme, WC =      100.0
 initial mixing is a Kerker type mixing with AMIX =  0.4000 and BMIX =      1.0000
 Hartree-type preconditioning will be used
 using additional bands           35
 reciprocal scheme for non local part
 use partial core corrections
 calculate Harris-corrections to forces 
   (improved forces if not selfconsistent)
 use gradient corrections 
 use of overlap-Matrix (Vanderbilt PP)
 Gauss-broadening in eV      SIGMA  =   0.05


--------------------------------------------------------------------------------------------------------


  energy-cutoff  :      500.00
  volume of cell :      954.89
      direct lattice vectors                 reciprocal lattice vectors
     6.181820000  0.000000000  0.000000000     0.161764658  0.093394924  0.000000000
    -3.090910000  5.353610000  0.000000000     0.000000000  0.186789848  0.000000000
     0.000000000  0.000000000 28.852900000     0.000000000  0.000000000  0.034658561

  length of vectors
     6.181820000  6.181817262 28.852900000     0.186789766  0.186789848  0.034658561


 
 k-points in units of 2pi/SCALE and weight: K-Spacing Value to Generate K-Mesh: 0.04
   0.00000000  0.00000000  0.00000000       0.005
   0.01155462  0.00667107  0.00000000       0.031
   0.02310924  0.01334213  0.00000000       0.031
   0.03466386  0.02001320  0.00000000       0.031
   0.04621847  0.02668426  0.00000000       0.031
   0.05777309  0.03335533  0.00000000       0.031
   0.06932771  0.04002640  0.00000000       0.031
   0.08088233  0.04669746  0.00000000       0.015
   0.01155462  0.02001320  0.00000000       0.031
   0.02310924  0.02668426  0.00000000       0.031
  -0.02310924  0.02668426  0.00000000       0.031
   0.03466386  0.03335533  0.00000000       0.031
  -0.03466386  0.03335533  0.00000000       0.031
   0.04621847  0.04002640  0.00000000       0.031
  -0.04621847  0.04002640  0.00000000       0.031
   0.05777309  0.04669746  0.00000000       0.031
  -0.05777309  0.04669746  0.00000000       0.031
   0.06932771  0.05336853  0.00000000       0.031
  -0.06932771  0.05336853  0.00000000       0.031
   0.02310924  0.04002640  0.00000000       0.031
   0.03466386  0.04669746  0.00000000       0.031
  -0.03466386  0.04669746  0.00000000       0.031
   0.04621847  0.05336853  0.00000000       0.031
  -0.04621847  0.05336853  0.00000000       0.031
   0.05777309  0.06003959  0.00000000       0.031
  -0.05777309  0.06003959  0.00000000       0.031
   0.06932771  0.06671066  0.00000000       0.031
   0.03466386  0.06003959  0.00000000       0.031
   0.04621847  0.06671066  0.00000000       0.031
  -0.04621847  0.06671066  0.00000000       0.031
   0.05777309  0.07338173  0.00000000       0.031
  -0.05777309 -0.11340812  0.00000000       0.031
   0.04621847  0.08005279  0.00000000       0.031
   0.05777309  0.08672386  0.00000000       0.031
 
 k-points in reciprocal lattice and weights: K-Spacing Value to Generate K-Mesh: 0.04
   0.00000000  0.00000000  0.00000000       0.005
   0.07142857  0.00000000  0.00000000       0.031
   0.14285714  0.00000000  0.00000000       0.031
   0.21428571  0.00000000  0.00000000       0.031
   0.28571429  0.00000000  0.00000000       0.031
   0.35714286  0.00000000  0.00000000       0.031
   0.42857143  0.00000000  0.00000000       0.031
   0.50000000  0.00000000  0.00000000       0.015
   0.07142857  0.07142857  0.00000000       0.031
   0.14285714  0.07142857  0.00000000       0.031
  -0.14285714  0.21428571  0.00000000       0.031
   0.21428571  0.07142857  0.00000000       0.031
  -0.21428571  0.28571429  0.00000000       0.031
   0.28571429  0.07142857  0.00000000       0.031
  -0.28571429  0.35714286  0.00000000       0.031
   0.35714286  0.07142857  0.00000000       0.031
  -0.35714286  0.42857143  0.00000000       0.031
   0.42857143  0.07142857  0.00000000       0.031
  -0.42857143  0.50000000  0.00000000       0.031
   0.14285714  0.14285714  0.00000000       0.031
   0.21428571  0.14285714  0.00000000       0.031
  -0.21428571  0.35714286  0.00000000       0.031
   0.28571429  0.14285714  0.00000000       0.031
  -0.28571429  0.42857143  0.00000000       0.031
   0.35714286  0.14285714  0.00000000       0.031
  -0.35714286  0.50000000  0.00000000       0.031
   0.42857143  0.14285714  0.00000000       0.031
   0.21428571  0.21428571  0.00000000       0.031
   0.28571429  0.21428571  0.00000000       0.031
  -0.28571429  0.50000000  0.00000000       0.031
   0.35714286  0.21428571  0.00000000       0.031
  -0.35714286 -0.42857143  0.00000000       0.031
   0.28571429  0.28571429  0.00000000       0.031
   0.35714286  0.28571429  0.00000000       0.031
 
 position of ions in fractional coordinates (direct lattice) 
   0.99999961  0.99999961  0.22605002
   0.66666842  0.33333238  0.22649385
   0.96818965  0.66705242  0.27391414
   0.33294778  0.30113725  0.27391410
   0.69886238  0.03180970  0.27391431
   0.96646775  0.30027985  0.17856108
   0.69972044  0.66619591  0.17856144
   0.33380397  0.03353289  0.17856106
 
 position of ions in cartesian coordinates  (Angst):
   3.09090878  5.35360791  6.52219875
   3.09092377  1.78453155  6.53500448
   3.92337518  3.57113849  7.90321717
   1.12743510  1.61217140  7.90321624
   4.22192051  0.17029671  7.90322209
   5.04639170  1.60758120  5.15200492
   2.26639421  3.56655307  5.15201546
   1.95986892  0.17952202  5.15200430
 


--------------------------------------------------------------------------------------------------------


 k-point     1 :   0.0000 0.0000 0.0000  plane waves:   24345
 k-point     2 :   0.0714 0.0000 0.0000  plane waves:   24307
 k-point     3 :   0.1429 0.0000 0.0000  plane waves:   24257
 k-point     4 :   0.2143 0.0000 0.0000  plane waves:   24251
 k-point     5 :   0.2857 0.0000 0.0000  plane waves:   24248
 k-point     6 :   0.3571 0.0000 0.0000  plane waves:   24230
 k-point     7 :   0.4286 0.0000 0.0000  plane waves:   24210
 k-point     8 :   0.5000 0.0000 0.0000  plane waves:   24244
 k-point     9 :   0.0714 0.0714 0.0000  plane waves:   24251
 k-point    10 :   0.1429 0.0714 0.0000  plane waves:   24246
 k-point    11 :  -0.1429 0.2143 0.0000  plane waves:   24246
 k-point    12 :   0.2143 0.0714 0.0000  plane waves:   24223
 k-point    13 :  -0.2143 0.2857 0.0000  plane waves:   24223
 k-point    14 :   0.2857 0.0714 0.0000  plane waves:   24238
 k-point    15 :  -0.2857 0.3571 0.0000  plane waves:   24238
 k-point    16 :   0.3571 0.0714 0.0000  plane waves:   24216
 k-point    17 :  -0.3571 0.4286 0.0000  plane waves:   24216
 k-point    18 :   0.4286 0.0714 0.0000  plane waves:   24258
 k-point    19 :  -0.4286 0.5000 0.0000  plane waves:   24258
 k-point    20 :   0.1429 0.1429 0.0000  plane waves:   24215
 k-point    21 :   0.2143 0.1429 0.0000  plane waves:   24239
 k-point    22 :  -0.2143 0.3571 0.0000  plane waves:   24239
 k-point    23 :   0.2857 0.1429 0.0000  plane waves:   24241
 k-point    24 :  -0.2857 0.4286 0.0000  plane waves:   24241
 k-point    25 :   0.3571 0.1429 0.0000  plane waves:   24261
 k-point    26 :  -0.3571 0.5000 0.0000  plane waves:   24261
 k-point    27 :   0.4286 0.1429 0.0000  plane waves:   24264
 k-point    28 :   0.2143 0.2143 0.0000  plane waves:   24221
 k-point    29 :   0.2857 0.2143 0.0000  plane waves:   24224
 k-point    30 :  -0.2857 0.5000 0.0000  plane waves:   24224
 k-point    31 :   0.3571 0.2143 0.0000  plane waves:   24263
 k-point    32 :  -0.3571-0.4286 0.0000  plane waves:   24263
 k-point    33 :   0.2857 0.2857 0.0000  plane waves:   24239
 k-point    34 :   0.3571 0.2857 0.0000  plane waves:   24253

 maximum and minimum number of plane-waves per node :     24345    24210

 maximum number of plane-waves:     24345
 maximum index in each direction: 
   IXMAX=   11   IYMAX=   11   IZMAX=   52
   IXMIN=  -11   IYMIN=  -11   IZMIN=  -52


 serial   3D FFT for wavefunctions
 parallel 3D FFT for charge:
    minimum data exchange during FFTs selected (reduces bandwidth)


 total amount of memory used by VASP MPI-rank0   393134. kBytes
=======================================================================

   base      :      30000. kBytes
   nonl-proj :     241571. kBytes
   fftplans  :      19623. kBytes
   grid      :      48494. kBytes
   one-center:        248. kBytes
   wavefun   :      53198. kBytes
 
     INWAV:  cpu time      0.0001: real time      0.0003
 Broyden mixing: mesh for mixing (old mesh)
   NGX = 23   NGY = 23   NGZ =105
  (NGX  = 96   NGY  = 96   NGZ  =420)
  gives a total of  55545 points

 initial charge density was supplied:
 charge density of overlapping atoms calculated
 number of electron      58.0000000 magnetization      -0.0000000
 keeping initial charge density in first step


--------------------------------------------------------------------------------------------------------


 Maximum index for augmentation-charges         4183 (set IRDMAX)


--------------------------------------------------------------------------------------------------------


 First call to EWALD:  gamma=   0.180
 Maximum number of real-space cells 5x 5x 1
 Maximum number of reciprocal cells 2x 2x 7

    FEWALD:  cpu time      0.0033: real time      0.0157


--------------------------------------- Ionic step        1  -------------------------------------------




--------------------------------------- Iteration      1(   1)  ---------------------------------------


    POTLOK:  cpu time      0.2599: real time      0.2856
    SETDIJ:  cpu time      0.5943: real time      0.5944
     EDDAV:  cpu time     29.0753: real time     30.1137
       DOS:  cpu time      0.0091: real time      0.0400
    --------------------------------------------
      LOOP:  cpu time     29.9388: real time     31.0345

 eigenvalue-minimisations  :  8704
 total energy-change (2. order) : 0.4621980E+03  (-0.1726198E+04)
 number of electron      58.0000000 magnetization      -0.0000000
 augmentation part       58.0000000 magnetization      -0.0000000

 Free energy of the ion-electron system (eV)
  ---------------------------------------------------
  alpha Z        PSCENC =        21.49062660
  Ewald energy   TEWEN  =     13294.32066487
  -Hartree energ DENC   =    -16542.21420724
  -exchange      EXHF   =         0.00000000
  -V(xc)+E(xc)   XCENC  =       131.79648901
  PAW double counting   =      3055.14876058    -3050.95216630
  entropy T*S    EENTRO =        -0.00858934
  eigenvalues    EBANDS =       -94.34622043
  atomic energy  EATOM  =      3646.96265231
  Solvation  Ediel_sol  =         0.00000000
  ---------------------------------------------------
  free energy    TOTEN  =       462.19801005 eV

  energy without entropy =      462.20659939  energy(sigma->0) =      462.20230472


--------------------------------------------------------------------------------------------------------




--------------------------------------- Iteration      1(   2)  ---------------------------------------


     EDDAV:  cpu time     46.2793: real time     48.2733
       DOS:  cpu time      0.0088: real time      0.0432
    --------------------------------------------
      LOOP:  cpu time     46.2881: real time     48.3165

 eigenvalue-minimisations  : 15296
 total energy-change (2. order) :-0.4435318E+03  (-0.4121933E+03)
 number of electron      58.0000000 magnetization      -0.0000000
 augmentation part       58.0000000 magnetization      -0.0000000

 Free energy of the ion-electron system (eV)
  ---------------------------------------------------
  alpha Z        PSCENC =        21.49062660
  Ewald energy   TEWEN  =     13294.32066487
  -Hartree energ DENC   =    -16542.21420724
  -exchange      EXHF   =         0.00000000
  -V(xc)+E(xc)   XCENC  =       131.79648901
  PAW double counting   =      3055.14876058    -3050.95216630
  entropy T*S    EENTRO =        -0.00000000
  eigenvalues    EBANDS =      -537.88662357
  atomic energy  EATOM  =      3646.96265231
  Solvation  Ediel_sol  =         0.00000000
  ---------------------------------------------------
  free energy    TOTEN  =        18.66619626 eV

  energy without entropy =       18.66619626  energy(sigma->0) =       18.66619626


--------------------------------------------------------------------------------------------------------




--------------------------------------- Iteration      1(   3)  ---------------------------------------


     EDDAV:  cpu time     37.0203: real time     38.4011
       DOS:  cpu time      0.0093: real time      0.0348
    --------------------------------------------
      LOOP:  cpu time     37.0295: real time     38.4357

 eigenvalue-minimisations  : 11808
 total energy-change (2. order) :-0.5730755E+02  (-0.5689871E+02)
 number of electron      58.0000000 magnetization      -0.0000000
 augmentation part       58.0000000 magnetization      -0.0000000

 Free energy of the ion-electron system (eV)
  ---------------------------------------------------
  alpha Z        PSCENC =        21.49062660
  Ewald energy   TEWEN  =     13294.32066487
  -Hartree energ DENC   =    -16542.21420724
  -exchange      EXHF   =         0.00000000
  -V(xc)+E(xc)   XCENC  =       131.79648901
  PAW double counting   =      3055.14876058    -3050.95216630
  entropy T*S    EENTRO =        -0.00000000
  eigenvalues    EBANDS =      -595.19416896
  atomic energy  EATOM  =      3646.96265231
  Solvation  Ediel_sol  =         0.00000000
  ---------------------------------------------------
  free energy    TOTEN  =       -38.64134913 eV

  energy without entropy =      -38.64134913  energy(sigma->0) =      -38.64134913


--------------------------------------------------------------------------------------------------------




--------------------------------------- Iteration      1(   4)  ---------------------------------------


     EDDAV:  cpu time     38.1423: real time     39.0269
       DOS:  cpu time      0.0072: real time      0.0388
    --------------------------------------------
      LOOP:  cpu time     38.1495: real time     39.0660

 eigenvalue-minimisations  : 12224
 total energy-change (2. order) :-0.1439626E+01  (-0.1438756E+01)
 number of electron      58.0000000 magnetization      -0.0000000
 augmentation part       58.0000000 magnetization      -0.0000000

 Free energy of the ion-electron system (eV)
  ---------------------------------------------------
  alpha Z        PSCENC =        21.49062660
  Ewald energy   TEWEN  =     13294.32066487
  -Hartree energ DENC   =    -16542.21420724
  -exchange      EXHF   =         0.00000000
  -V(xc)+E(xc)   XCENC  =       131.79648901
  PAW double counting   =      3055.14876058    -3050.95216630
  entropy T*S    EENTRO =        -0.00000000
  eigenvalues    EBANDS =      -596.63379461
  atomic energy  EATOM  =      3646.96265231
  Solvation  Ediel_sol  =         0.00000000
  ---------------------------------------------------
  free energy    TOTEN  =       -40.08097478 eV

  energy without entropy =      -40.08097478  energy(sigma->0) =      -40.08097478


--------------------------------------------------------------------------------------------------------




--------------------------------------- Iteration      1(   5)  ---------------------------------------


     EDDAV:  cpu time     38.6106: real time     39.7870
       DOS:  cpu time      0.0049: real time      0.0282
    CHARGE:  cpu time      1.9087: real time      1.9381
    MIXING:  cpu time      0.0122: real time      0.0216
    --------------------------------------------
      LOOP:  cpu time     40.5372: real time     41.7822

 eigenvalue-minimisations  : 12512
 total energy-change (2. order) :-0.4291884E-01  (-0.4291523E-01)
 number of electron      58.0000000 magnetization       0.0000000
 augmentation part        0.7576054 magnetization       0.0001835

 Broyden mixing:
  rms(total) = 0.23506E+01    rms(broyden)= 0.23506E+01
  rms(prec ) = 0.24318E+01
  weight for this iteration     100.00

 Free energy of the ion-electron system (eV)
  ---------------------------------------------------
  alpha Z        PSCENC =        21.49062660
  Ewald energy   TEWEN  =     13294.32066487
  -Hartree energ DENC   =    -16542.21420724
  -exchange      EXHF   =         0.00000000
  -V(xc)+E(xc)   XCENC  =       131.79648901
  PAW double counting   =      3055.14876058    -3050.95216630
  entropy T*S    EENTRO =        -0.00000000
  eigenvalues    EBANDS =      -596.67671344
  atomic energy  EATOM  =      3646.96265231
  Solvation  Ediel_sol  =         0.00000000
  ---------------------------------------------------
  free energy    TOTEN  =       -40.12389362 eV

  energy without entropy =      -40.12389362  energy(sigma->0) =      -40.12389362


--------------------------------------------------------------------------------------------------------




--------------------------------------- Iteration      1(   6)  ---------------------------------------


    POTLOK:  cpu time      0.2122: real time      0.2388
    SETDIJ:  cpu time      0.5632: real time      0.5676
     EDDAV:  cpu time     33.4978: real time     34.2204
       DOS:  cpu time      0.0040: real time      0.0159
    CHARGE:  cpu time      1.7087: real time      1.7350
    MIXING:  cpu time      0.0182: real time      0.0679
    --------------------------------------------
      LOOP:  cpu time     36.0035: real time     36.8400

 eigenvalue-minimisations  : 10560
 total energy-change (2. order) : 0.9249576E+01  (-0.5542716E+01)
 number of electron      58.0000000 magnetization       0.0000000
 augmentation part        3.6565326 magnetization       0.0000521

 Broyden mixing:
  rms(total) = 0.42833E+01    rms(broyden)= 0.42832E+01
  rms(prec ) = 0.42957E+01
  weight for this iteration     100.00

 eigenvalues of (default mixing * dielectric matrix)
  average eigenvalue GAMMA=   0.0183
  0.0183

 Free energy of the ion-electron system (eV)
  ---------------------------------------------------
  alpha Z        PSCENC =        21.49062660
  Ewald energy   TEWEN  =     13294.32066487
  -Hartree energ DENC   =    -16482.39310567
  -exchange      EXHF   =         0.00000000
  -V(xc)+E(xc)   XCENC  =       134.91096105
  PAW double counting   =      3358.32150829    -3346.59246408
  entropy T*S    EENTRO =        -0.00000000
  eigenvalues    EBANDS =      -657.89516090
  atomic energy  EATOM  =      3646.96265231
  Solvation  Ediel_sol  =         0.00000000
  ---------------------------------------------------
  free energy    TOTEN  =       -30.87431754 eV

  energy without entropy =      -30.87431754  energy(sigma->0) =      -30.87431754


--------------------------------------------------------------------------------------------------------




--------------------------------------- Iteration      1(   7)  ---------------------------------------


    POTLOK:  cpu time      0.2287: real time      0.2624
    SETDIJ:  cpu time      0.5521: real time      0.5561
     EDDAV:  cpu time     36.3955: real time     37.4567
       DOS:  cpu time      0.0072: real time      0.0288
    CHARGE:  cpu time      1.8818: real time      1.9486
    MIXING:  cpu time      0.0186: real time      0.0731
    --------------------------------------------
      LOOP:  cpu time     39.0838: real time     40.3241

 eigenvalue-minimisations  : 11552
 total energy-change (2. order) : 0.1550424E+00  (-0.4881001E+00)
 number of electron      58.0000000 magnetization       0.0000000
 augmentation part        3.1875190 magnetization       0.0000825

 Broyden mixing:
  rms(total) = 0.31328E+01    rms(broyden)= 0.31328E+01
  rms(prec ) = 0.31387E+01
  weight for this iteration     100.00

 eigenvalues of (default mixing * dielectric matrix)
  average eigenvalue GAMMA=   0.6344
  0.8673  0.4015

 Free energy of the ion-electron system (eV)
  ---------------------------------------------------
  alpha Z        PSCENC =        21.49062660
  Ewald energy   TEWEN  =     13294.32066487
  -Hartree energ DENC   =    -16487.00721407
  -exchange      EXHF   =         0.00000000
  -V(xc)+E(xc)   XCENC  =       134.24503526
  PAW double counting   =      3420.62489890    -3411.05821328
  entropy T*S    EENTRO =        -0.00000000
  eigenvalues    EBANDS =      -650.29772571
  atomic energy  EATOM  =      3646.96265231
  Solvation  Ediel_sol  =         0.00000000
  ---------------------------------------------------
  free energy    TOTEN  =       -30.71927512 eV

  energy without entropy =      -30.71927512  energy(sigma->0) =      -30.71927512


--------------------------------------------------------------------------------------------------------




--------------------------------------- Iteration      1(   8)  ---------------------------------------


    POTLOK:  cpu time      0.2249: real time      0.2428
    SETDIJ:  cpu time      0.5342: real time      0.5426
     EDDAV:  cpu time     39.8635: real time     41.3460
       DOS:  cpu time      0.0064: real time      0.0290
    CHARGE:  cpu time      1.8241: real time      1.8962
    MIXING:  cpu time      0.0182: real time      0.0413
    --------------------------------------------
      LOOP:  cpu time     42.4714: real time     44.0981

 eigenvalue-minimisations  : 12960
 total energy-change (2. order) : 0.1596846E+00  (-0.1062176E+00)
 number of electron      58.0000000 magnetization       0.0000000
 augmentation part        3.1287982 magnetization      -0.0012884

 Broyden mixing:
  rms(total) = 0.22513E+01    rms(broyden)= 0.22513E+01
  rms(prec ) = 0.22578E+01
  weight for this iteration     100.00

 eigenvalues of (default mixing * dielectric matrix)
  average eigenvalue GAMMA=   0.9359
  0.3287  1.2395  1.2395

 Free energy of the ion-electron system (eV)
  ---------------------------------------------------
  alpha Z        PSCENC =        21.49062660
  Ewald energy   TEWEN  =     13294.32066487
  -Hartree energ DENC   =    -16478.95278087
  -exchange      EXHF   =         0.00000000
  -V(xc)+E(xc)   XCENC  =       134.96982910
  PAW double counting   =      3872.97727521    -3867.96857562
  entropy T*S    EENTRO =        -0.00000000
  eigenvalues    EBANDS =      -654.35928212
  atomic energy  EATOM  =      3646.96265231
  Solvation  Ediel_sol  =         0.00000000
  ---------------------------------------------------
  free energy    TOTEN  =       -30.55959052 eV

  energy without entropy =      -30.55959052  energy(sigma->0) =      -30.55959052


--------------------------------------------------------------------------------------------------------




--------------------------------------- Iteration      1(   9)  ---------------------------------------


    POTLOK:  cpu time      0.2208: real time      0.2519
    SETDIJ:  cpu time      0.5600: real time      0.5730
     EDDAV:  cpu time     35.6994: real time     36.6975
       DOS:  cpu time      0.0067: real time      0.0281
    CHARGE:  cpu time      1.8526: real time      1.8855
    MIXING:  cpu time      0.0119: real time      0.0588
    --------------------------------------------
      LOOP:  cpu time     38.3513: real time     39.4946

 eigenvalue-minimisations  : 11328
 total energy-change (2. order) : 0.3167533E+00  (-0.1294491E+00)
 number of electron      58.0000000 magnetization       0.0000000
 augmentation part        2.7305636 magnetization       0.0011620

 Broyden mixing:
  rms(total) = 0.63179E+00    rms(broyden)= 0.63179E+00
  rms(prec ) = 0.63550E+00
  weight for this iteration     100.00

 eigenvalues of (default mixing * dielectric matrix)
  average eigenvalue GAMMA=   1.0692
  1.9192  1.3089  0.3378  0.7108

 Free energy of the ion-electron system (eV)
  ---------------------------------------------------
  alpha Z        PSCENC =        21.49062660
  Ewald energy   TEWEN  =     13294.32066487
  -Hartree energ DENC   =    -16478.55349734
  -exchange      EXHF   =         0.00000000
  -V(xc)+E(xc)   XCENC  =       133.45010266
  PAW double counting   =      4280.87552406    -4281.43337190
  entropy T*S    EENTRO =        -0.00000000
  eigenvalues    EBANDS =      -647.35553843
  atomic energy  EATOM  =      3646.96265231
  Solvation  Ediel_sol  =         0.00000000
  ---------------------------------------------------
  free energy    TOTEN  =       -30.24283718 eV

  energy without entropy =      -30.24283718  energy(sigma->0) =      -30.24283718


--------------------------------------------------------------------------------------------------------




--------------------------------------- Iteration      1(  10)  ---------------------------------------


    POTLOK:  cpu time      0.2883: real time      0.3116
    SETDIJ:  cpu time      0.5966: real time      0.6023
     EDDAV:  cpu time     37.8526: real time     39.2134
       DOS:  cpu time      0.0088: real time      0.0394
    CHARGE:  cpu time      1.9005: real time      1.9303
    MIXING:  cpu time      0.0145: real time      0.0426
    --------------------------------------------
      LOOP:  cpu time     40.6616: real time     42.1409

 eigenvalue-minimisations  : 11936
 total energy-change (2. order) : 0.3301563E-01  (-0.2309932E-01)
 number of electron      58.0000000 magnetization       0.0000000
 augmentation part        2.5785901 magnetization      -0.0004658

 Broyden mixing:
  rms(total) = 0.24389E+00    rms(broyden)= 0.24388E+00
  rms(prec ) = 0.24531E+00
  weight for this iteration     100.00

 eigenvalues of (default mixing * dielectric matrix)
  average eigenvalue GAMMA=   1.1419
  2.2928  1.2139  1.2139  0.3374  0.6516

 Free energy of the ion-electron system (eV)
  ---------------------------------------------------
  alpha Z        PSCENC =        21.49062660
  Ewald energy   TEWEN  =     13294.32066487
  -Hartree energ DENC   =    -16482.20393094
  -exchange      EXHF   =         0.00000000
  -V(xc)+E(xc)   XCENC  =       133.43263520
  PAW double counting   =      4358.91017764    -4361.53904171
  entropy T*S    EENTRO =        -0.00000000
  eigenvalues    EBANDS =      -641.58360551
  atomic energy  EATOM  =      3646.96265231
  Solvation  Ediel_sol  =         0.00000000
  ---------------------------------------------------
  free energy    TOTEN  =       -30.20982155 eV

  energy without entropy =      -30.20982155  energy(sigma->0) =      -30.20982155


--------------------------------------------------------------------------------------------------------




--------------------------------------- Iteration      1(  11)  ---------------------------------------


    POTLOK:  cpu time      0.2307: real time      0.2571
    SETDIJ:  cpu time      0.5993: real time      0.6031
     EDDAV:  cpu time     41.7783: real time     43.1129
       DOS:  cpu time      0.0065: real time      0.0546
    CHARGE:  cpu time      1.7175: real time      1.7567
    MIXING:  cpu time      0.0157: real time      0.0412
    --------------------------------------------
      LOOP:  cpu time     44.3476: real time     45.8244

 eigenvalue-minimisations  : 13632
 total energy-change (2. order) :-0.1941004E-02  (-0.1621752E-01)
 number of electron      58.0000000 magnetization       0.0000000
 augmentation part        2.4606584 magnetization       0.0000387

 Broyden mixing:
  rms(total) = 0.10106E+00    rms(broyden)= 0.10105E+00
  rms(prec ) = 0.10238E+00
  weight for this iteration     100.00

 eigenvalues of (default mixing * dielectric matrix)
  average eigenvalue GAMMA=   1.2629
  2.8217  1.5092  1.5092  0.3370  0.7003  0.7003

 Free energy of the ion-electron system (eV)
  ---------------------------------------------------
  alpha Z        PSCENC =        21.49062660
  Ewald energy   TEWEN  =     13294.32066487
  -Hartree energ DENC   =    -16486.16125065
  -exchange      EXHF   =         0.00000000
  -V(xc)+E(xc)   XCENC  =       133.43163860
  PAW double counting   =      4356.82656687    -4359.89185495
  entropy T*S    EENTRO =        -0.00000000
  eigenvalues    EBANDS =      -637.19080620
  atomic energy  EATOM  =      3646.96265231
  Solvation  Ediel_sol  =         0.00000000
  ---------------------------------------------------
  free energy    TOTEN  =       -30.21176255 eV

  energy without entropy =      -30.21176255  energy(sigma->0) =      -30.21176255


--------------------------------------------------------------------------------------------------------




--------------------------------------- Iteration      1(  12)  ---------------------------------------


    POTLOK:  cpu time      0.2259: real time      0.2476
    SETDIJ:  cpu time      0.5951: real time      0.5981
     EDDAV:  cpu time     40.2362: real time     41.4691
       DOS:  cpu time      0.0045: real time      0.0211
    CHARGE:  cpu time      1.8906: real time      1.9243
    MIXING:  cpu time      0.0158: real time      0.0346
    --------------------------------------------
      LOOP:  cpu time     42.9680: real time     44.2947

 eigenvalue-minimisations  : 12896
 total energy-change (2. order) :-0.1065194E-02  (-0.5018867E-02)
 number of electron      58.0000000 magnetization       0.0000000
 augmentation part        2.5245063 magnetization       0.0003198

 Broyden mixing:
  rms(total) = 0.38479E-01    rms(broyden)= 0.38478E-01
  rms(prec ) = 0.39054E-01
  weight for this iteration     100.00

 eigenvalues of (default mixing * dielectric matrix)
  average eigenvalue GAMMA=   1.1818
  2.6450  1.5514  1.5514  0.3369  0.8402  0.7303  0.6172

 Free energy of the ion-electron system (eV)
  ---------------------------------------------------
  alpha Z        PSCENC =        21.49062660
  Ewald energy   TEWEN  =     13294.32066487
  -Hartree energ DENC   =    -16486.23509557
  -exchange      EXHF   =         0.00000000
  -V(xc)+E(xc)   XCENC  =       133.50532531
  PAW double counting   =      4373.44415162    -4376.60590195
  entropy T*S    EENTRO =        -0.00000000
  eigenvalues    EBANDS =      -637.09525094
  atomic energy  EATOM  =      3646.96265231
  Solvation  Ediel_sol  =         0.00000000
  ---------------------------------------------------
  free energy    TOTEN  =       -30.21282774 eV

  energy without entropy =      -30.21282774  energy(sigma->0) =      -30.21282774


--------------------------------------------------------------------------------------------------------




--------------------------------------- Iteration      1(  13)  ---------------------------------------


    POTLOK:  cpu time      0.2223: real time      0.2452
    SETDIJ:  cpu time      0.5654: real time      0.5701
     EDDAV:  cpu time     36.0061: real time     37.2475
       DOS:  cpu time      0.0043: real time      0.0196
    CHARGE:  cpu time      1.9148: real time      1.9495
    MIXING:  cpu time      0.0133: real time      0.0427
    --------------------------------------------
      LOOP:  cpu time     38.7263: real time     40.0747

 eigenvalue-minimisations  : 11296
 total energy-change (2. order) : 0.2090374E-03  (-0.3443114E-03)
 number of electron      58.0000000 magnetization       0.0000000
 augmentation part        2.5211217 magnetization      -0.0000935

 Broyden mixing:
  rms(total) = 0.20839E-01    rms(broyden)= 0.20839E-01
  rms(prec ) = 0.21162E-01
  weight for this iteration     100.00

 eigenvalues of (default mixing * dielectric matrix)
  average eigenvalue GAMMA=   1.1462
  2.6079  1.5519  1.5519  0.3370  0.9884  0.8286  0.6519  0.6519

 Free energy of the ion-electron system (eV)
  ---------------------------------------------------
  alpha Z        PSCENC =        21.49062660
  Ewald energy   TEWEN  =     13294.32066487
  -Hartree energ DENC   =    -16486.04189087
  -exchange      EXHF   =         0.00000000
  -V(xc)+E(xc)   XCENC  =       133.45526397
  PAW double counting   =      4364.10772673    -4367.16119248
  entropy T*S    EENTRO =        -0.00000000
  eigenvalues    EBANDS =      -637.34646985
  atomic energy  EATOM  =      3646.96265231
  Solvation  Ediel_sol  =         0.00000000
  ---------------------------------------------------
  free energy    TOTEN  =       -30.21261871 eV

  energy without entropy =      -30.21261871  energy(sigma->0) =      -30.21261871


--------------------------------------------------------------------------------------------------------




--------------------------------------- Iteration      1(  14)  ---------------------------------------


    POTLOK:  cpu time      0.2119: real time      0.2748
    SETDIJ:  cpu time      0.5881: real time      0.5964
     EDDAV:  cpu time     38.8849: real time     40.1180
       DOS:  cpu time      0.0095: real time      0.0752
    CHARGE:  cpu time      1.8539: real time      1.8756
    MIXING:  cpu time      0.0139: real time      0.0424
    --------------------------------------------
      LOOP:  cpu time     41.5623: real time     42.9824

 eigenvalue-minimisations  : 12288
 total energy-change (2. order) :-0.3568049E-03  (-0.6356766E-04)
 number of electron      58.0000000 magnetization       0.0000000
 augmentation part        2.5109097 magnetization       0.0000042

 Broyden mixing:
  rms(total) = 0.10401E-01    rms(broyden)= 0.10400E-01
  rms(prec ) = 0.10445E-01
  weight for this iteration     100.00

 eigenvalues of (default mixing * dielectric matrix)
  average eigenvalue GAMMA=   1.1712
  2.7570  1.6304  1.6304  0.3370  1.0529  1.0529  0.6382  0.7210  0.7210

 Free energy of the ion-electron system (eV)
  ---------------------------------------------------
  alpha Z        PSCENC =        21.49062660
  Ewald energy   TEWEN  =     13294.32066487
  -Hartree energ DENC   =    -16486.16434335
  -exchange      EXHF   =         0.00000000
  -V(xc)+E(xc)   XCENC  =       133.43379788
  PAW double counting   =      4361.17061495    -4364.22071668
  entropy T*S    EENTRO =        -0.00000000
  eigenvalues    EBANDS =      -637.20627208
  atomic energy  EATOM  =      3646.96265231
  Solvation  Ediel_sol  =         0.00000000
  ---------------------------------------------------
  free energy    TOTEN  =       -30.21297551 eV

  energy without entropy =      -30.21297551  energy(sigma->0) =      -30.21297551


--------------------------------------------------------------------------------------------------------




--------------------------------------- Iteration      1(  15)  ---------------------------------------


    POTLOK:  cpu time      0.2378: real time      0.2712
    SETDIJ:  cpu time      0.5923: real time      0.6007
     EDDAV:  cpu time     42.5430: real time     43.9927
       DOS:  cpu time      0.0085: real time      0.0360
    CHARGE:  cpu time      1.8569: real time      1.8842
    MIXING:  cpu time      0.0202: real time      0.0400
    --------------------------------------------
      LOOP:  cpu time     45.2587: real time     46.8247

 eigenvalue-minimisations  : 13888
 total energy-change (2. order) :-0.2241622E-03  (-0.1428318E-04)
 number of electron      58.0000000 magnetization       0.0000000
 augmentation part        2.5106509 magnetization       0.0000252

 Broyden mixing:
  rms(total) = 0.45951E-02    rms(broyden)= 0.45947E-02
  rms(prec ) = 0.46273E-02
  weight for this iteration     100.00

 eigenvalues of (default mixing * dielectric matrix)
  average eigenvalue GAMMA=   1.2742
  3.2339  1.7067  1.6109  1.6109  1.3372  0.3370  0.7804  0.7804  0.6483  0.6969

 Free energy of the ion-electron system (eV)
  ---------------------------------------------------
  alpha Z        PSCENC =        21.49062660
  Ewald energy   TEWEN  =     13294.32066487
  -Hartree energ DENC   =    -16486.11764994
  -exchange      EXHF   =         0.00000000
  -V(xc)+E(xc)   XCENC  =       133.43945187
  PAW double counting   =      4361.28387774    -4364.35486065
  entropy T*S    EENTRO =        -0.00000000
  eigenvalues    EBANDS =      -637.23796247
  atomic energy  EATOM  =      3646.96265231
  Solvation  Ediel_sol  =         0.00000000
  ---------------------------------------------------
  free energy    TOTEN  =       -30.21319967 eV

  energy without entropy =      -30.21319967  energy(sigma->0) =      -30.21319967


--------------------------------------------------------------------------------------------------------




--------------------------------------- Iteration      1(  16)  ---------------------------------------


    POTLOK:  cpu time      0.2180: real time      0.2477
    SETDIJ:  cpu time      0.5749: real time      0.5810
     EDDAV:  cpu time     43.5464: real time     44.6936
       DOS:  cpu time      0.0056: real time      0.0215
    CHARGE:  cpu time      1.7973: real time      1.8252
    MIXING:  cpu time      0.0142: real time      0.0367
    --------------------------------------------
      LOOP:  cpu time     46.1563: real time     47.4058

 eigenvalue-minimisations  : 14272
 total energy-change (2. order) :-0.1334438E-03  (-0.6559869E-05)
 number of electron      58.0000000 magnetization       0.0000000
 augmentation part        2.5117709 magnetization      -0.0000434

 Broyden mixing:
  rms(total) = 0.24161E-02    rms(broyden)= 0.24160E-02
  rms(prec ) = 0.24521E-02
  weight for this iteration     100.00

 eigenvalues of (default mixing * dielectric matrix)
  average eigenvalue GAMMA=   1.2460
  3.1493  2.2655  1.6229  1.6229  0.3370  1.0011  1.0011  0.7458  0.7458  0.6207
  0.5937

 Free energy of the ion-electron system (eV)
  ---------------------------------------------------
  alpha Z        PSCENC =        21.49062660
  Ewald energy   TEWEN  =     13294.32066487
  -Hartree energ DENC   =    -16485.99612013
  -exchange      EXHF   =         0.00000000
  -V(xc)+E(xc)   XCENC  =       133.43481133
  PAW double counting   =      4359.63086997    -4362.70715552
  entropy T*S    EENTRO =        -0.00000000
  eigenvalues    EBANDS =      -637.34968255
  atomic energy  EATOM  =      3646.96265231
  Solvation  Ediel_sol  =         0.00000000
  ---------------------------------------------------
  free energy    TOTEN  =       -30.21333312 eV

  energy without entropy =      -30.21333312  energy(sigma->0) =      -30.21333312


--------------------------------------------------------------------------------------------------------




--------------------------------------- Iteration      1(  17)  ---------------------------------------


    POTLOK:  cpu time      0.2306: real time      0.2650
    SETDIJ:  cpu time      0.6057: real time      0.6137
     EDDAV:  cpu time     38.4509: real time     39.3091
       DOS:  cpu time      0.0074: real time      0.0311
    CHARGE:  cpu time      1.8571: real time      1.8867
    MIXING:  cpu time      0.0182: real time      0.0637
    --------------------------------------------
      LOOP:  cpu time     41.1700: real time     42.1695

 eigenvalue-minimisations  : 12256
 total energy-change (2. order) :-0.2777162E-04  (-0.8711019E-06)
 number of electron      58.0000000 magnetization       0.0000000
 augmentation part        2.5106764 magnetization       0.0000209

 Broyden mixing:
  rms(total) = 0.67305E-03    rms(broyden)= 0.67289E-03
  rms(prec ) = 0.72365E-03
  weight for this iteration     100.00

 eigenvalues of (default mixing * dielectric matrix)
  average eigenvalue GAMMA=   1.2290
  3.1493  2.2940  1.6250  1.6250  0.3370  1.1578  0.9626  0.7887  0.7887  0.7688
  0.6254  0.6254

 Free energy of the ion-electron system (eV)
  ---------------------------------------------------
  alpha Z        PSCENC =        21.49062660
  Ewald energy   TEWEN  =     13294.32066487
  -Hartree energ DENC   =    -16485.96929511
  -exchange      EXHF   =         0.00000000
  -V(xc)+E(xc)   XCENC  =       133.43134771
  PAW double counting   =      4358.95452505    -4362.02952779
  entropy T*S    EENTRO =        -0.00000000
  eigenvalues    EBANDS =      -637.37435454
  atomic energy  EATOM  =      3646.96265231
  Solvation  Ediel_sol  =         0.00000000
  ---------------------------------------------------
  free energy    TOTEN  =       -30.21336089 eV

  energy without entropy =      -30.21336089  energy(sigma->0) =      -30.21336089


--------------------------------------------------------------------------------------------------------




--------------------------------------- Iteration      1(  18)  ---------------------------------------


    POTLOK:  cpu time      0.2508: real time      0.2923
    SETDIJ:  cpu time      0.5880: real time      0.5957
     EDDAV:  cpu time     38.8694: real time     40.0684
       DOS:  cpu time      0.0055: real time      0.0244
    CHARGE:  cpu time      1.9119: real time      1.9391
    MIXING:  cpu time      0.0172: real time      0.0375
    --------------------------------------------
      LOOP:  cpu time     41.6430: real time     42.9576

 eigenvalue-minimisations  : 12320
 total energy-change (2. order) :-0.3181131E-04  (-0.2003140E-06)
 number of electron      58.0000000 magnetization       0.0000000
 augmentation part        2.5107671 magnetization       0.0000110

 Broyden mixing:
  rms(total) = 0.36895E-03    rms(broyden)= 0.36889E-03
  rms(prec ) = 0.42789E-03
  weight for this iteration     100.00

 eigenvalues of (default mixing * dielectric matrix)
  average eigenvalue GAMMA=   1.2202
  3.1812  2.3761  1.6419  1.6419  1.1792  1.1792  0.3370  0.7369  0.7369  0.7777
  0.7777  0.6483  0.6483

 Free energy of the ion-electron system (eV)
  ---------------------------------------------------
  alpha Z        PSCENC =        21.49062660
  Ewald energy   TEWEN  =     13294.32066487
  -Hartree energ DENC   =    -16485.91935229
  -exchange      EXHF   =         0.00000000
  -V(xc)+E(xc)   XCENC  =       133.43151087
  PAW double counting   =      4358.85312634    -4361.92929572
  entropy T*S    EENTRO =        -0.00000000
  eigenvalues    EBANDS =      -637.42332567
  atomic energy  EATOM  =      3646.96265231
  Solvation  Ediel_sol  =         0.00000000
  ---------------------------------------------------
  free energy    TOTEN  =       -30.21339270 eV

  energy without entropy =      -30.21339270  energy(sigma->0) =      -30.21339270


--------------------------------------------------------------------------------------------------------




--------------------------------------- Iteration      1(  19)  ---------------------------------------


    POTLOK:  cpu time      0.2275: real time      0.2492
    SETDIJ:  cpu time      0.5915: real time      0.5977
     EDDAV:  cpu time     38.2569: real time     39.2645
       DOS:  cpu time      0.0063: real time      0.0304
    CHARGE:  cpu time      1.8660: real time      1.9145
    MIXING:  cpu time      0.0158: real time      0.0416
    --------------------------------------------
      LOOP:  cpu time     40.9640: real time     42.0979

 eigenvalue-minimisations  : 12096
 total energy-change (2. order) :-0.3377931E-04  (-0.8013141E-07)
 number of electron      58.0000000 magnetization       0.0000000
 augmentation part        2.5107422 magnetization       0.0000131

 Broyden mixing:
  rms(total) = 0.22462E-03    rms(broyden)= 0.22455E-03
  rms(prec ) = 0.28246E-03
  weight for this iteration     100.00

 eigenvalues of (default mixing * dielectric matrix)
  average eigenvalue GAMMA=   1.2496
  3.3165  2.4363  1.9788  1.6158  1.6158  0.3370  1.0369  1.0369  0.7769  0.7769
  0.6873  0.6299  0.6243  0.6243

 Free energy of the ion-electron system (eV)
  ---------------------------------------------------
  alpha Z        PSCENC =        21.49062660
  Ewald energy   TEWEN  =     13294.32066487
  -Hartree energ DENC   =    -16485.87906322
  -exchange      EXHF   =         0.00000000
  -V(xc)+E(xc)   XCENC  =       133.43117862
  PAW double counting   =      4358.77303197    -4361.85063267
  entropy T*S    EENTRO =        -0.00000000
  eigenvalues    EBANDS =      -637.46188495
  atomic energy  EATOM  =      3646.96265231
  Solvation  Ediel_sol  =         0.00000000
  ---------------------------------------------------
  free energy    TOTEN  =       -30.21342648 eV

  energy without entropy =      -30.21342648  energy(sigma->0) =      -30.21342648


--------------------------------------------------------------------------------------------------------




--------------------------------------- Iteration      1(  20)  ---------------------------------------


    POTLOK:  cpu time      0.2294: real time      0.2552
    SETDIJ:  cpu time      0.5779: real time      0.5834
     EDDAV:  cpu time     38.5527: real time     39.5760
       DOS:  cpu time      0.0055: real time      0.0262
    CHARGE:  cpu time      1.7514: real time      1.7747
    MIXING:  cpu time      0.0146: real time      0.0749
    --------------------------------------------
      LOOP:  cpu time     41.1315: real time     42.2904

 eigenvalue-minimisations  : 12256
 total energy-change (2. order) :-0.3394299E-04  (-0.8870508E-07)
 number of electron      58.0000000 magnetization       0.0000000
 augmentation part        2.5107698 magnetization       0.0000101

 Broyden mixing:
  rms(total) = 0.20340E-03    rms(broyden)= 0.20333E-03
  rms(prec ) = 0.23708E-03
  weight for this iteration     100.00

 eigenvalues of (default mixing * dielectric matrix)
  average eigenvalue GAMMA=   1.2529
  3.2699  2.6885  2.1935  1.6328  1.6328  1.2742  0.3370  0.8857  0.8857  0.7393
  0.7393  0.6703  0.6703  0.6046  0.5702

 Free energy of the ion-electron system (eV)
  ---------------------------------------------------
  alpha Z        PSCENC =        21.49062660
  Ewald energy   TEWEN  =     13294.32066487
  -Hartree energ DENC   =    -16485.83102158
  -exchange      EXHF   =         0.00000000
  -V(xc)+E(xc)   XCENC  =       133.43094644
  PAW double counting   =      4358.79180776    -4361.87036657
  entropy T*S    EENTRO =        -0.00000000
  eigenvalues    EBANDS =      -637.50877025
  atomic energy  EATOM  =      3646.96265231
  Solvation  Ediel_sol  =         0.00000000
  ---------------------------------------------------
  free energy    TOTEN  =       -30.21346042 eV

  energy without entropy =      -30.21346042  energy(sigma->0) =      -30.21346042


--------------------------------------------------------------------------------------------------------




--------------------------------------- Iteration      1(  21)  ---------------------------------------


    POTLOK:  cpu time      0.2319: real time      0.2580
    SETDIJ:  cpu time      0.5895: real time      0.5934
     EDDAV:  cpu time     34.5880: real time     35.4111
       DOS:  cpu time      0.0069: real time      0.0271
    CHARGE:  cpu time      1.6872: real time      1.6976
    MIXING:  cpu time      0.0139: real time      0.0334
    --------------------------------------------
      LOOP:  cpu time     37.1175: real time     38.0204

 eigenvalue-minimisations  : 10432
 total energy-change (2. order) :-0.1743836E-04  (-0.2758886E-07)
 number of electron      58.0000000 magnetization       0.0000000
 augmentation part        2.5107008 magnetization       0.0000142

 Broyden mixing:
  rms(total) = 0.12349E-03    rms(broyden)= 0.12339E-03
  rms(prec ) = 0.15655E-03
  weight for this iteration     100.00

 eigenvalues of (default mixing * dielectric matrix)
  average eigenvalue GAMMA=   1.2716
  3.2224  2.9148  2.4686  1.6614  1.6614  1.2092  1.1154  0.3370  0.8683  0.8683
  0.7386  0.7386  0.6607  0.6607  0.6247  0.5949

 Free energy of the ion-electron system (eV)
  ---------------------------------------------------
  alpha Z        PSCENC =        21.49062660
  Ewald energy   TEWEN  =     13294.32066487
  -Hartree energ DENC   =    -16485.80106256
  -exchange      EXHF   =         0.00000000
  -V(xc)+E(xc)   XCENC  =       133.43055825
  PAW double counting   =      4358.83501282    -4361.91339749
  entropy T*S    EENTRO =        -0.00000000
  eigenvalues    EBANDS =      -637.53853267
  atomic energy  EATOM  =      3646.96265231
  Solvation  Ediel_sol  =         0.00000000
  ---------------------------------------------------
  free energy    TOTEN  =       -30.21347786 eV

  energy without entropy =      -30.21347786  energy(sigma->0) =      -30.21347786


--------------------------------------------------------------------------------------------------------




--------------------------------------- Iteration      1(  22)  ---------------------------------------


    POTLOK:  cpu time      0.2250: real time      0.2371
    SETDIJ:  cpu time      0.5978: real time      0.6024
     EDDAV:  cpu time     35.9522: real time     36.6236
       DOS:  cpu time      0.0047: real time      0.0239
    CHARGE:  cpu time      1.8750: real time      1.8999
    MIXING:  cpu time      0.0175: real time      0.0435
    --------------------------------------------
      LOOP:  cpu time     38.6723: real time     39.4304

 eigenvalue-minimisations  : 11328
 total energy-change (2. order) :-0.2570974E-04  (-0.1209555E-06)
 number of electron      58.0000000 magnetization       0.0000000
 augmentation part        2.5107807 magnetization       0.0000109

 Broyden mixing:
  rms(total) = 0.13397E-03    rms(broyden)= 0.13387E-03
  rms(prec ) = 0.14096E-03
  weight for this iteration     100.00

 eigenvalues of (default mixing * dielectric matrix)
  average eigenvalue GAMMA=   1.3843
  4.4485  3.2864  2.5565  1.7155  1.7155  1.4491  1.4491  0.3370  0.8953  0.8953
  0.7560  0.7560  0.6951  0.6951  0.6465  0.6465  0.5904

 Free energy of the ion-electron system (eV)
[...]
     34      -3.9024      0.00000
     35       0.8296      0.00000
     36       1.5537      0.00000
     37       1.8405      0.00000
     38       2.1427      0.00000
     39       2.1926      0.00000
     40       2.3709      0.00000
     41       2.6228      0.00000
     42       2.8789      0.00000
     43       3.0610      0.00000
     44       3.1554      0.00000
     45       3.2487      0.00000
     46       3.2906      0.00000
     47       3.3718      0.00000
     48       3.4637      0.00000
     49       3.5746      0.00000
     50       3.7711      0.00000
     51       3.8139      0.00000
     52       4.0069      0.00000
     53       4.0184      0.00000
     54       4.0802      0.00000
     55       4.1446      0.00000
     56       4.3553      0.00000
     57       4.4225      0.00000
     58       4.5472      0.00000
     59       4.7233      0.00000
     60       4.7982      0.00000
     61       4.8714      0.00000
     62       4.9469      0.00000
     63       5.1357      0.00000
     64       5.2278      0.00000

 k-point    33 :       0.2857    0.2857    0.0000
  band No.  band energies     occupation 
      1     -20.0006      1.00000
      2     -19.8472      1.00000
      3     -19.5556      1.00000
      4     -19.4738      1.00000
      5     -19.4080      1.00000
      6     -19.3737      1.00000
      7     -12.1821      1.00000
      8     -12.1195      1.00000
      9     -12.0056      1.00000
     10     -11.9997      1.00000
     11     -11.9874      1.00000
     12     -10.0346      1.00000
     13      -9.5096      1.00000
     14      -9.1630      1.00000
     15      -8.9921      1.00000
     16      -8.8230      1.00000
     17      -8.3991      1.00000
     18      -8.0967      1.00000
     19      -8.0486      1.00000
     20      -7.9542      1.00000
     21      -7.6322      1.00000
     22      -7.3401      1.00000
     23      -7.0619      1.00000
     24      -6.9957      1.00000
     25      -6.8848      1.00000
     26      -6.7299      1.00000
     27      -6.6465      1.00000
     28      -6.2980      1.00000
     29      -6.2496      1.00000
     30      -4.1928      0.00000
     31      -4.1625      0.00000
     32      -4.1053      0.00000
     33      -3.9958      0.00000
     34      -3.8998      0.00000
     35       0.8334      0.00000
     36       1.5240      0.00000
     37       1.8010      0.00000
     38       2.1646      0.00000
     39       2.1961      0.00000
     40       2.3631      0.00000
     41       2.8446      0.00000
     42       2.8741      0.00000
     43       2.8776      0.00000
     44       3.1062      0.00000
     45       3.2574      0.00000
     46       3.3398      0.00000
     47       3.3870      0.00000
     48       3.6290      0.00000
     49       3.6450      0.00000
     50       3.6855      0.00000
     51       3.7780      0.00000
     52       3.8700      0.00000
     53       3.8964      0.00000
     54       4.1174      0.00000
     55       4.1401      0.00000
     56       4.2862      0.00000
     57       4.4623      0.00000
     58       4.4787      0.00000
     59       4.7135      0.00000
     60       4.8023      0.00000
     61       4.8100      0.00000
     62       4.8910      0.00000
     63       5.1966      0.00000
     64       5.2644      0.00000

 k-point    34 :       0.3571    0.2857    0.0000
  band No.  band energies     occupation 
      1     -19.9560      1.00000
      2     -19.8905      1.00000
      3     -19.5593      1.00000
      4     -19.4647      1.00000
      5     -19.4143      1.00000
      6     -19.3763      1.00000
      7     -12.1848      1.00000
      8     -12.1190      1.00000
      9     -12.0045      1.00000
     10     -11.9953      1.00000
     11     -11.9914      1.00000
     12     -10.0088      1.00000
     13      -9.5250      1.00000
     14      -9.1494      1.00000
     15      -8.9859      1.00000
     16      -8.8477      1.00000
     17      -8.3878      1.00000
     18      -8.0961      1.00000
     19      -8.0686      1.00000
     20      -7.9387      1.00000
     21      -7.6364      1.00000
     22      -7.3446      1.00000
     23      -7.0708      1.00000
     24      -7.0104      1.00000
     25      -6.8673      1.00000
     26      -6.7338      1.00000
     27      -6.6373      1.00000
     28      -6.2985      1.00000
     29      -6.2456      1.00000
     30      -4.1886      0.00000
     31      -4.1609      0.00000
     32      -4.1076      0.00000
     33      -3.9976      0.00000
     34      -3.8982      0.00000
     35       0.8311      0.00000
     36       1.5050      0.00000
     37       1.9209      0.00000
     38       2.0434      0.00000
     39       2.2005      0.00000
     40       2.5714      0.00000
     41       2.6182      0.00000
     42       2.8632      0.00000
     43       3.0923      0.00000
     44       3.1831      0.00000
     45       3.2703      0.00000
     46       3.3103      0.00000
     47       3.3772      0.00000
     48       3.4823      0.00000
     49       3.5706      0.00000
     50       3.6119      0.00000
     51       3.7596      0.00000
     52       3.8743      0.00000
     53       3.9745      0.00000
     54       4.0242      0.00000
     55       4.1277      0.00000
     56       4.1565      0.00000
     57       4.3942      0.00000
     58       4.5667      0.00000
     59       4.6271      0.00000
     60       4.7784      0.00000
     61       4.8174      0.00000
     62       5.0377      0.00000
     63       5.1004      0.00000
     64       5.2839      0.00000


--------------------------------------------------------------------------------------------------------


 soft charge-density along one line, spin component           1
         0         1         2         3         4         5         6         7         8         9
 total charge-density along one line
 
 soft charge-density along one line, spin component           2
         0         1         2         3         4         5         6         7         8         9
 total charge-density along one line
 
 pseudopotential strength for first ion, spin component:           1
-16.616   0.017   0.000  -0.000   0.000 -16.914   0.013   0.000
  0.017 -16.600  -0.000  -0.000  -0.000   0.013 -16.901  -0.000
  0.000  -0.000 -16.633   0.000   0.000   0.000  -0.000 -16.929
 -0.000  -0.000   0.000 -16.600  -0.017  -0.000  -0.000   0.000
  0.000  -0.000   0.000  -0.017 -16.616   0.000  -0.000   0.000
-16.914   0.013   0.000  -0.000   0.000 -17.194   0.009   0.000
  0.013 -16.901  -0.000  -0.000  -0.000   0.009 -17.184  -0.000
  0.000  -0.000 -16.929   0.000   0.000   0.000  -0.000 -17.205
 -0.000  -0.000   0.000 -16.901  -0.013  -0.000  -0.000   0.000
  0.000  -0.000   0.000  -0.013 -16.914   0.000  -0.000   0.000
  0.000   0.000   0.000  -0.000   0.000   0.000   0.000   0.000
  0.000   0.000   0.000  -0.000   0.000   0.000   0.000   0.000
 -0.000   0.000   0.000  -0.000   0.003  -0.000   0.000   0.000
 -0.000  -0.000   0.000   0.000  -0.000  -0.000  -0.000   0.000
  0.003  -0.000  -0.000   0.000   0.000   0.002  -0.000  -0.000
 -0.000  -0.000   0.000  -0.000   0.003  -0.000  -0.000   0.000
 -0.000  -0.000   0.000   0.000  -0.000  -0.000  -0.000   0.000
  0.003  -0.000  -0.000  -0.000   0.000   0.003  -0.000  -0.000
 pseudopotential strength for first ion, spin component:           2
-11.021  -0.461   0.000   0.005   0.000 -11.356  -0.465   0.000
 -0.461 -11.377  -0.000  -0.000   0.005  -0.465 -11.716  -0.000
  0.000  -0.000 -10.656   0.000   0.000   0.000  -0.000 -10.988
  0.005  -0.000   0.000 -11.377   0.461   0.005  -0.000   0.000
  0.000   0.005   0.000   0.461 -11.021   0.000   0.005   0.000
-11.356  -0.465   0.000   0.005   0.000 -11.642  -0.474   0.000
 -0.465 -11.716  -0.000  -0.000   0.005  -0.474 -12.008  -0.000
  0.000  -0.000 -10.988   0.000   0.000   0.000  -0.000 -11.267
  0.005  -0.000   0.000 -11.716   0.465   0.005  -0.000   0.000
  0.000   0.005   0.000   0.465 -11.356   0.000   0.005   0.000
  0.000   0.000  -0.001  -0.000   0.000   0.000   0.000  -0.001
  0.000   0.000  -0.002  -0.000   0.000   0.000   0.000  -0.002
  0.000   0.000   0.000  -0.000  -0.001   0.000   0.000   0.000
 -0.000  -0.000   0.000   0.000  -0.000  -0.000  -0.000   0.000
 -0.001  -0.000  -0.000   0.000  -0.000  -0.001  -0.000  -0.000
  0.000   0.000   0.000  -0.000  -0.001   0.000   0.000   0.000
 -0.000  -0.000   0.000   0.000  -0.000  -0.000  -0.000   0.000
 -0.001  -0.000  -0.000   0.000  -0.000  -0.001  -0.000  -0.000
 total augmentation occupancy for first ion, spin component:           1
  7.022   2.284  -0.000  -0.022   0.000  -4.846  -2.229   0.000   0.021  -0.000  -0.000  -0.000   0.005   0.000  -0.100  -0.000
  2.284   8.673   0.000  -0.000  -0.022  -2.229  -6.446  -0.000  -0.000   0.021   0.000   0.000   0.006   0.000   0.007  -0.000
 -0.000   0.000   5.304   0.000  -0.000  -0.000  -0.000  -3.164  -0.000   0.000   0.024  -0.003   0.000  -0.002   0.000  -0.000
 -0.022   0.000   0.000   8.673  -2.284   0.021   0.000  -0.000  -6.446   2.229   0.000   0.000  -0.007   0.000   0.006  -0.000
  0.000  -0.022  -0.000  -2.284   7.022   0.000   0.021   0.000   2.229  -4.846  -0.000   0.000  -0.100   0.000  -0.005   0.007
 -4.846  -2.229  -0.000   0.021   0.000   3.911   2.300  -0.000  -0.022  -0.000   0.000   0.000  -0.006  -0.000   0.112   0.000
 -2.229  -6.446  -0.000   0.000   0.021   2.300   5.558   0.000   0.000  -0.022   0.000   0.000  -0.007  -0.000  -0.011   0.000
  0.000  -0.000  -3.164  -0.000   0.000  -0.000   0.000   2.164   0.000  -0.000  -0.029   0.005  -0.000   0.003  -0.000   0.000
  0.021  -0.000  -0.000  -6.446   2.229  -0.022   0.000   0.000   5.558  -2.300   0.000  -0.000   0.011   0.000  -0.007   0.000
 -0.000   0.021   0.000   2.229  -4.846   0.000  -0.022  -0.000  -2.300   3.911   0.000  -0.000   0.112  -0.000   0.006  -0.010
 -0.000   0.000   0.024   0.000  -0.000   0.000   0.000  -0.029   0.000   0.000   1.520  -0.148   0.000  -0.003  -0.000   0.000
 -0.000  -0.000  -0.003   0.000   0.000   0.000   0.000   0.005  -0.000  -0.000  -0.148   0.031   0.000   0.000  -0.000   0.000
  0.005   0.006   0.000  -0.007  -0.100  -0.006  -0.007  -0.000   0.011   0.112  -0.000   0.000   0.229   0.000   0.000  -0.021
  0.000   0.000  -0.002  -0.000   0.000  -0.000  -0.000   0.003   0.000  -0.000  -0.003   0.000   0.000   0.227  -0.000  -0.000
 -0.100   0.007   0.000   0.006  -0.005   0.112  -0.011  -0.000  -0.007   0.006  -0.000  -0.000   0.000   0.000   0.229   0.000
 -0.000  -0.000  -0.000  -0.000   0.007   0.000   0.000   0.000   0.000  -0.010   0.000   0.000  -0.021   0.000   0.000   0.003
  0.000   0.000   0.000   0.000  -0.000   0.000   0.000  -0.000  -0.000   0.000   0.000  -0.000   0.000  -0.020   0.000   0.000
  0.007   0.000  -0.000  -0.000   0.000  -0.010  -0.000   0.000   0.000  -0.000  -0.000   0.000  -0.000  -0.000  -0.021  -0.000
 total augmentation occupancy for first ion, spin component:           2
  6.679   1.996  -0.000  -0.019  -0.000  -4.319  -1.836   0.000   0.018  -0.000  -0.000  -0.000   0.003   0.000  -0.043   0.000
  1.996   8.133   0.000   0.000  -0.019  -1.836  -5.661  -0.000   0.000   0.018  -0.000   0.000   0.003   0.000   0.016   0.000
 -0.000   0.000   5.172   0.000  -0.000  -0.000  -0.000  -2.933  -0.000   0.000   0.004   0.001   0.000  -0.002   0.000   0.000
 -0.019  -0.000   0.000   8.133  -1.996   0.018  -0.000  -0.000  -5.661   1.836   0.000   0.000  -0.016   0.000   0.003   0.000
  0.000  -0.019  -0.000  -1.996   6.679   0.000   0.018   0.000   1.836  -4.319  -0.000  -0.000  -0.043   0.000  -0.003  -0.002
 -4.319  -1.836  -0.000   0.018   0.000   2.890   1.562  -0.000  -0.015   0.000   0.000   0.000  -0.002  -0.000   0.026  -0.000
 -1.836  -5.661  -0.000  -0.000   0.018   1.562   4.033   0.000   0.000  -0.015   0.000   0.000  -0.003   0.000  -0.010  -0.000
  0.000  -0.000  -2.933  -0.000   0.000  -0.000   0.000   1.716   0.000  -0.000  -0.000  -0.000  -0.000   0.001  -0.000  -0.000
  0.018   0.000  -0.000  -5.661   1.836  -0.015   0.000   0.000   4.033  -1.562  -0.000   0.000   0.010   0.000  -0.003  -0.000
 -0.000   0.018   0.000   1.836  -4.319   0.000  -0.015  -0.000  -1.562   2.890   0.000   0.000   0.026  -0.000   0.002   0.002
 -0.000  -0.000   0.004   0.000  -0.000   0.000   0.000  -0.000  -0.000   0.000  -0.258   0.106   0.000   0.000  -0.000   0.000
 -0.000   0.000   0.001   0.000  -0.000   0.000   0.000  -0.000   0.000   0.000   0.106  -0.012   0.000  -0.000  -0.000   0.000
  0.003   0.003   0.000  -0.016  -0.043  -0.002  -0.003  -0.000   0.010   0.026   0.000   0.000  -0.005   0.000  -0.000   0.007
  0.000   0.000  -0.002   0.000   0.000  -0.000   0.000   0.001  -0.000  -0.000   0.000  -0.000  -0.000  -0.004   0.000  -0.000
 -0.043   0.016   0.000   0.003  -0.003   0.026  -0.010  -0.000  -0.003   0.002  -0.000   0.000   0.000   0.000  -0.005   0.000
  0.000   0.000   0.000   0.000  -0.002  -0.000  -0.000  -0.000  -0.000   0.002   0.000   0.000   0.007   0.000   0.000  -0.001
 -0.000   0.000   0.000   0.000  -0.000   0.000   0.000  -0.000   0.000   0.000  -0.000   0.000  -0.000   0.006  -0.000   0.000
 -0.002  -0.000   0.000   0.000  -0.000   0.002   0.000  -0.000  -0.000   0.000  -0.000  -0.000  -0.000   0.000   0.007  -0.000


------------------------ aborting loop because EDIFF is reached ----------------------------------------


    CHARGE:  cpu time      1.9144: real time      1.9340
    FORLOC:  cpu time      0.0124: real time      0.0129
    FORNL :  cpu time      3.0556: real time      3.0843
    STRESS:  cpu time     14.0983: real time     14.1219
    FORCOR:  cpu time      0.1914: real time      0.2382
    FORHAR:  cpu time      0.0239: real time      0.0260
    MIXING:  cpu time      0.0179: real time      0.0377
    OFIELD:  cpu time      0.0004: real time      0.0017

  FORCE on cell =-STRESS in cart. coord.  units (eV):
  Direction    XX          YY          ZZ          XY          YZ          ZX
  --------------------------------------------------------------------------------------
  Alpha Z    21.49063    21.49063    21.49063
  Ewald   15146.15204 15146.14286-16997.97575     0.00082     0.00221    -0.00425
  Hartree 15892.14902 15892.14895-15298.60304    -0.00187    -0.00014     0.00044
  E(xc)    -236.17881  -236.17880  -236.46016     0.00000    -0.00001     0.00001
  Local  -32069.02345-32069.01666 31261.66496     0.00229    -0.00115     0.00224
  n-local   453.21340   453.60653   453.11426    -0.27645     0.12723    -0.08984
  augment   -34.90652   -34.90604   -35.23981    -0.00029    -0.00016     0.00021
  Kinetic   827.31210   826.99680   831.80209     0.10065    -0.03277    -0.03838
  Fock        0.00000     0.00000     0.00000     0.00000     0.00000     0.00000
  -------------------------------------------------------------------------------------
  Total       0.24633     0.24633    -0.20683     0.00000     0.00000     0.00000
  in kB       0.41332     0.41332    -0.34703     0.00000     0.00000     0.00000
  external pressure =        0.16 kB  Pullay stress =        0.00 kB


 VOLUME and BASIS-vectors are now :
 -----------------------------------------------------------------------------
  energy-cutoff  :      500.00
  volume of cell :      954.89
      direct lattice vectors                 reciprocal lattice vectors
     6.181820000  0.000000000  0.000000000     0.161764658  0.093394924  0.000000000
    -3.090910000  5.353610000  0.000000000     0.000000000  0.186789848  0.000000000
     0.000000000  0.000000000 28.852900000     0.000000000  0.000000000  0.034658561

  length of vectors
     6.181820000  6.181817262 28.852900000     0.186789766  0.186789848  0.034658561


 FORCES acting on ions
    electron-ion (+dipol)            ewald-force                    non-local-force                 convergence-correction
 -----------------------------------------------------------------------------------------------
   -.553E-03 0.194E-03 0.201E+01   -.810E-03 0.186E-02 -.204E+01   0.260E-17 0.000E+00 0.462E-01   0.402E-06 0.189E-07 0.696E-05
   0.137E-03 0.490E-04 -.382E+01   -.249E-02 0.708E-04 0.383E+01   0.867E-18 0.000E+00 -.102E-01   0.218E-06 -.354E-06 0.593E-05
   -.874E+02 -.372E+00 -.564E+03   0.889E+02 0.387E+00 0.566E+03   -.152E+01 -.181E-01 -.241E+01   -.136E-03 -.101E-04 -.106E-03
   0.440E+02 -.755E+02 -.564E+03   -.448E+02 0.768E+02 0.566E+03   0.774E+00 -.130E+01 -.241E+01   0.767E-04 -.113E-03 -.106E-03
   0.434E+02 0.759E+02 -.564E+03   -.441E+02 -.772E+02 0.566E+03   0.743E+00 0.132E+01 -.241E+01   0.590E-04 0.123E-03 -.106E-03
   -.434E+02 -.757E+02 0.565E+03   0.442E+02 0.770E+02 -.567E+03   -.725E+00 -.130E+01 0.242E+01   -.745E-04 -.113E-03 0.118E-03
   0.873E+02 0.215E+00 0.565E+03   -.888E+02 -.245E+00 -.567E+03   0.149E+01 0.231E-01 0.242E+01   0.135E-03 -.770E-05 0.118E-03
   -.438E+02 0.754E+02 0.565E+03   0.446E+02 -.767E+02 -.567E+03   -.765E+00 0.128E+01 0.242E+01   -.605E-04 0.120E-03 0.118E-03
 -----------------------------------------------------------------------------------------------
   0.719E-01 -.414E-01 -.444E-01   0.711E-14 0.284E-13 -.114E-12   -.777E-15 0.000E+00 0.444E-01   0.747E-06 -.398E-06 0.475E-04
 
 
 POSITION                                       TOTAL-FORCE (eV/Angst)
 -----------------------------------------------------------------------------------
      3.09091      5.35361      6.52220        -0.000000     -0.000000      0.018483
      3.09092      1.78453      6.53500        -0.000000     -0.000000      0.000770
      3.92338      3.57114      7.90322        -0.002895     -0.003540     -0.016602
      1.12744      1.61217      7.90322         0.004513     -0.000737     -0.016602
      4.22192      0.17030      7.90322        -0.001619      0.004277     -0.016602
      5.04639      1.60758      5.15200         0.012229      0.005235      0.010185
      2.26639      3.56655      5.15202        -0.010648      0.007973      0.010185
      1.95987      0.17952      5.15200        -0.001581     -0.013208      0.010185
 -----------------------------------------------------------------------------------
    total drift:                                0.071891     -0.041425      0.000060


--------------------------------------------------------------------------------------------------------



  FREE ENERGIE OF THE ION-ELECTRON SYSTEM (eV)
  ---------------------------------------------------
  free  energy   TOTEN  =       -30.21351539 eV

  energy  without entropy=      -30.21351539  energy(sigma->0) =      -30.21351539
 


--------------------------------------------------------------------------------------------------------


    POTLOK:  cpu time      0.8150: real time      0.8336


--------------------------------------------------------------------------------------------------------


     LOOP+:  cpu time   1009.0703: real time   1039.8645
    4ORBIT:  cpu time      0.0000: real time      0.0000

 total amount of memory used by VASP MPI-rank0   393134. kBytes
=======================================================================

   base      :      30000. kBytes
   nonl-proj :     241571. kBytes
   fftplans  :      19623. kBytes
   grid      :      48494. kBytes
   one-center:        248. kBytes
   wavefun   :      53198. kBytes
 
  
  
 General timing and accounting informations for this job:
 ========================================================
  
                  Total CPU time used (sec):     1020.818
                            User time (sec):      983.239
                          System time (sec):       37.580
                         Elapsed time (sec):     1052.760
  
                   Maximum memory used (kb):      612860.
                   Average memory used (kb):          N/A
  
                          Minor page faults:       463059
                          Major page faults:        86988
                 Voluntary context switches:       139871
