 vasp.6.4.3 19Mar24 (build Jul 08 2025 21:20:34) complex                        
  
 executed on             LinuxIFC date 2025.10.30  12:18:07
 running   32 mpi-ranks, on    1 nodes
 distrk:  each k-point on   32 cores,    1 groups
 distr:  one band on NCORE=   1 cores,   32 groups


--------------------------------------------------------------------------------------------------------


 INCAR:
   ISTART = 1            (Read existing wavefunction, if there)
   LREAL = .FALSE.       (Projection operators: automatic)
   ENCUT = 500        (Cut-off energy for plane wave basis set, in eV)
   PREC = Accurate   (Precision level: Normal or Accurate, set Accurate when perform structure lattice relaxation calculation)
   LWAVE = .FALSE.        (Write WAVECAR or not)
   LCHARG = .FALSE.        (Write CHGCAR or not)
   ADDGRID = .TRUE.        (Increase grid, helps GGA convergence)
   LASPH = .TRUE.        (Give more accurate total energies and band structure calculations)
   PREC = Accurate      (Accurate strictly avoids any aliasing or wrap around errors)
   ISMEAR = 0            (Gaussian smearing, metals:1)
   SIGMA = 0.05         (Smearing value in eV, metals:0.2)
   NELM = 90           (Max electronic SCF steps)
   NELMIN = 6            (Min electronic SCF steps)
   EDIFF = 1E-06        (SCF energy convergence, in eV)
   NSW = 0          (Max ionic steps)
   IBRION = 2            (Algorithm: 0-MD, 1-Quasi-New, 2-CG)
   EDIFFG = -2E-02        (Ionic convergence, eV/AA)
   ISPIN = 2
   MAGMOM = 5.0 5.0 0.0 0.0 0.0 0.0 0.0 0.0
   LDAU = .TRUE.
   LDAUTYPE = 2
   LDAUL = 2 -1
   LDAUU = 4.5 0.0
   LDAUJ = 0.9 0.0

 POTCAR:    PAW_PBE Fe 06Sep2000                  
 POTCAR:    PAW_PBE Cl 06Sep2000                  
 -----------------------------------------------------------------------------
|                                                                             |
|           W    W    AA    RRRRR   N    N  II  N    N   GGGG   !!!           |
|           W    W   A  A   R    R  NN   N  II  NN   N  G    G  !!!           |
|           W    W  A    A  R    R  N N  N  II  N N  N  G       !!!           |
|           W WW W  AAAAAA  RRRRR   N  N N  II  N  N N  G  GGG   !            |
|           WW  WW  A    A  R   R   N   NN  II  N   NN  G    G                |
|           W    W  A    A  R    R  N    N  II  N    N   GGGG   !!!           |
|                                                                             |
|     For optimal performance we recommend to set                             |
|       NCORE = 2 up to number-of-cores-per-socket                            |
|     NCORE specifies how many cores store one orbital (NPAR=cpu/NCORE).      |
|     This setting can greatly improve the performance of VASP for DFT.       |
|     The default, NCORE=1 might be grossly inefficient on modern             |
|     multi-core architectures or massively parallel machines. Do your        |
|     own testing! More info at https://www.vasp.at/wiki/index.php/NCORE      |
|     Unfortunately you need to use the default for GW and RPA                |
|     calculations (for HF NCORE is supported but not extensively tested      |
|     yet).                                                                   |
|                                                                             |
 -----------------------------------------------------------------------------

 POTCAR:    PAW_PBE Fe 06Sep2000                  
   SHA256 =  cd5a22d9368cc8b5cc476bea79732366149640da08ac9009b0e1b7fc627eea28 Fe/POTCAR             
   COPYR  = (c) Copyright 06Sep2000 Georg Kresse                                                    
   COPYR  = This file is part of the software VASP. Any use, copying, and all other rights are regul
   COPYR  = If you do not have a valid VASP license, you may not use, copy or distribute this file. 
   VRHFIN =Fe:  d7 s1                                                                               
   LEXCH  = PE                                                                                      
   EATOM  =   594.3153 eV,   43.6809 Ry                                                             
                                                                                                    
   TITEL  = PAW_PBE Fe 06Sep2000                                                                    
   LULTRA =        F    use ultrasoft PP ?                                                          
   IUNSCR =        1    unscreen: 0-lin 1-nonlin 2-no                                               
   RPACOR =    2.000    partial core radius                                                         
   POMASS =   55.847; ZVAL   =    8.000    mass and valenz                                          
   RCORE  =    2.300    outmost cutoff radius                                                       
   RWIGS  =    2.460; RWIGS  =    1.302    wigner-seitz radius (au A)                               
   ENMAX  =  267.882; ENMIN  =  200.911 eV                                                          
   RCLOC  =    1.701    cutoff for local pot                                                        
   LCOR   =        T    correct aug charges                                                         
   LPAW   =        T    paw PP                                                                      
   EAUG   =  511.368                                                                                
   DEXC   =    0.000                                                                                
   RMAX   =    2.356    core radius for proj-oper                                                   
   RAUG   =    1.300    factor for augmentation sphere                                              
   RDEP   =    2.442    radius for radial grids                                                     
   RDEPT  =    1.890    core radius for aug-charge                                                  
                                                                                                    
   Atomic configuration                                                                             
    9 entries                                                                                       
     n  l   j            E        occ.                                                              
     1  0  0.50     -6993.8440   2.0000                                                             
     2  0  0.50      -814.6047   2.0000                                                             
     2  1  1.50      -693.3689   6.0000                                                             
     3  0  0.50       -89.4732   2.0000                                                             
     3  1  1.50       -55.6373   6.0000                                                             
     3  2  2.50        -3.8151   7.0000                                                             
     4  0  0.50        -4.2551   1.0000                                                             
     4  1  1.50        -3.4015   0.0000                                                             
     4  3  2.50        -1.3606   0.0000                                                             
   Description                                                                                      
     l       E           TYP  RCUT    TYP  RCUT                                                     
     2     -3.8151135     23  2.300                                                                 
     2     -5.1756961     23  2.300                                                                 
     0     -4.2550963     23  2.300                                                                 
     0      7.2035603     23  2.300                                                                 
     1     -2.7211652     23  2.300                                                                 
     1     18.4316424     23  2.300                                                                 
  local pseudopotential read in
  partial core-charges read in
  partial kinetic energy density read in
  atomic valenz-charges read in
  non local Contribution for L=           2  read in
    real space projection operators read in
  non local Contribution for L=           2  read in
    real space projection operators read in
  non local Contribution for L=           0  read in
    real space projection operators read in
  non local Contribution for L=           0  read in
    real space projection operators read in
  non local Contribution for L=           1  read in
    real space projection operators read in
  non local Contribution for L=           1  read in
    real space projection operators read in
    PAW grid and wavefunctions read in
 
   number of l-projection  operators is LMAX  =           6
   number of lm-projection operators is LMMAX =          18
 
 POTCAR:    PAW_PBE Cl 06Sep2000                  
   SHA256 =  9f1b6e6ed4247ac726a768b330d26d7667cc3c95a39ff49c1d064c2d9dcce931 Cl/POTCAR             
   COPYR  = (c) Copyright 06Sep2000 Georg Kresse                                                    
   COPYR  = This file is part of the software VASP. Any use, copying, and all other rights are regul
   COPYR  = If you do not have a valid VASP license, you may not use, copy or distribute this file. 
   VRHFIN =Cl: s2p5                                                                                 
   LEXCH  = PE                                                                                      
   EATOM  =   409.7259 eV,   30.1140 Ry                                                             
                                                                                                    
   TITEL  = PAW_PBE Cl 06Sep2000                                                                    
   LULTRA =        F    use ultrasoft PP ?                                                          
   IUNSCR =        1    unscreen: 0-lin 1-nonlin 2-no                                               
   RPACOR =    1.500    partial core radius                                                         
   POMASS =   35.453; ZVAL   =    7.000    mass and valenz                                          
   RCORE  =    1.900    outmost cutoff radius                                                       
   RWIGS  =    2.100; RWIGS  =    1.111    wigner-seitz radius (au A)                               
   ENMAX  =  262.472; ENMIN  =  196.854 eV                                                          
   ICORE  =        2    local potential                                                             
   LCOR   =        T    correct aug charges                                                         
   LPAW   =        T    paw PP                                                                      
   EAUG   =  356.192                                                                                
   DEXC   =    0.000                                                                                
   RMAX   =    1.945    core radius for proj-oper                                                   
   RAUG   =    1.300    factor for augmentation sphere                                              
   RDEP   =    2.020    radius for radial grids                                                     
   RDEPT  =    1.678    core radius for aug-charge                                                  
                                                                                                    
   Atomic configuration                                                                             
    6 entries                                                                                       
     n  l   j            E        occ.                                                              
     1  0  0.50     -2751.1850   2.0000                                                             
     2  0  0.50      -252.6861   2.0000                                                             
     2  1  1.50      -191.6157   6.0000                                                             
     3  0  0.50       -20.6916   2.0000                                                             
     3  1  0.50        -8.5949   5.0000                                                             
     3  2  1.50        -8.1635   0.0000                                                             
   Description                                                                                      
     l       E           TYP  RCUT    TYP  RCUT                                                     
     0    -20.6915656     23  1.900                                                                 
     0    -22.0521482     23  1.900                                                                 
     1     -8.5948577     23  1.900                                                                 
     1     -5.3847331     23  1.900                                                                 
     2     -8.1634956     23  1.900                                                                 
  local pseudopotential read in
  partial core-charges read in
  partial kinetic energy density read in
  atomic valenz-charges read in
  non local Contribution for L=           0  read in
    real space projection operators read in
  non local Contribution for L=           0  read in
    real space projection operators read in
  non local Contribution for L=           1  read in
    real space projection operators read in
  non local Contribution for L=           1  read in
    real space projection operators read in
    PAW grid and wavefunctions read in
 
   number of l-projection  operators is LMAX  =           4
   number of lm-projection operators is LMMAX =           8
 
  PAW_PBE Fe 06Sep2000                  :
 energy of atom  1       EATOM= -594.3153
 kinetic energy error for atom=    0.0026 (will be added to EATOM!!)
  PAW_PBE Cl 06Sep2000                  :
 energy of atom  2       EATOM= -409.7259
 kinetic energy error for atom=    0.0030 (will be added to EATOM!!)
 
 
 POSCAR: Fe Cl
  positions in direct lattice
  velocities in cartesian coordinates


 exchange-correlation table for PE
   RHO(1)=    0.500       N(1)  =     2000
   RHO(2)=  100.500       N(2)  =     4000
 


--------------------------------------------------------------------------------------------------------


 ion  position               nearest neighbor table
   1  1.000  1.000  0.226-   8 2.40   7 2.40   6 2.40   3 2.41   4 2.41   5 2.41
   2  0.667  0.333  0.226-   3 2.40   5 2.40   4 2.40   6 2.40   8 2.40   7 2.40
   3  0.968  0.667  0.274-   2 2.40   1 2.41
   4  0.333  0.301  0.274-   2 2.40   1 2.41
   5  0.699  0.032  0.274-   2 2.40   1 2.41
   6  0.967  0.301  0.178-   1 2.40   2 2.40
   7  0.699  0.666  0.178-   1 2.40   2 2.40
   8  0.334  0.033  0.178-   1 2.40   2 2.40
 
  LATTYP: Found a hexagonal cell.
 ALAT       =     6.1818200000
 C/A-ratio  =     4.6673795096
  
  Lattice vectors:
  
 A1 = (   6.1818200000,   0.0000000000,   0.0000000000)
 A2 = (  -3.0909100000,   5.3536100000,   0.0000000000)
 A3 = (   0.0000000000,   0.0000000000,  28.8529000000)


Analysis of symmetry for initial positions (statically):
=====================================================================
 Subroutine PRICEL returns:
 Original cell was already a primitive cell.
 

 Routine SETGRP: Setting up the symmetry group for a 
 hexagonal supercell.


 Subroutine GETGRP returns: Found  3 space group operations
 (whereof  3 operations were pure point group operations)
 out of a pool of 24 trial point group operations.


The static configuration has the point symmetry C_3 .


Analysis of symmetry for dynamics (positions and initial velocities):
=====================================================================
 Subroutine PRICEL returns:
 Original cell was already a primitive cell.
 

 Routine SETGRP: Setting up the symmetry group for a 
 hexagonal supercell.


 Subroutine GETGRP returns: Found  3 space group operations
 (whereof  3 operations were pure point group operations)
 out of a pool of 24 trial point group operations.


The dynamic configuration has the point symmetry C_3 .


Analysis of structural, dynamic, and magnetic symmetry:
=====================================================================
 Subroutine PRICEL returns:
 Original cell was already a primitive cell.
 

 Routine SETGRP: Setting up the symmetry group for a 
 hexagonal supercell.


 Subroutine GETGRP returns: Found  3 space group operations
 (whereof  3 operations were pure point group operations)
 out of a pool of 24 trial point group operations.


The overall configuration has the point symmetry C_3 .


 Subroutine INISYM returns: Found  3 space group operations
 (whereof  3 operations are pure point group operations),
 and found     1 'primitive' translations


----------------------------------------------------------------------------------------

                                     Primitive cell                                     

  volume of cell :     954.8883

  direct lattice vectors                    reciprocal lattice vectors
     6.181820000  0.000000000  0.000000000     0.161764658  0.093394924  0.000000000
    -3.090910000  5.353610000  0.000000000     0.000000000  0.186789848  0.000000000
     0.000000000  0.000000000 28.852900000     0.000000000  0.000000000  0.034658561

  length of vectors
     6.181820000  6.181817262 28.852900000     0.186789766  0.186789848  0.034658561

  position of ions in fractional coordinates (direct lattice)
     0.999999499  0.999999947  0.226079424
     0.666667534  0.333333065  0.226474011
     0.968494661  0.667021116  0.274045719
     0.332979187  0.301473524  0.274045668
     0.698525989  0.031504936  0.274045873
     0.966924088  0.300653862  0.178426324
     0.699346090  0.666276806  0.178426763
     0.333722953  0.033076744  0.178426218

  ion indices of the primitive-cell ions
   primitive index   ion index
                 1           1
                 2           2
                 3           3
                 4           4
                 5           5
                 6           6
                 7           7
                 8           8

----------------------------------------------------------------------------------------

 
 
 KPOINTS: K-Spacing Value to Generate K-Mesh: 0.04

Automatic generation of k-mesh.
 Grid dimensions read from file:
 generate k-points for:   14   14    1

 Generating k-lattice:

  Cartesian coordinates                     Fractional coordinates (reciprocal lattice)
     0.011554618  0.006671066  0.000000000     0.071428571 -0.000000000  0.000000000
     0.000000000  0.013342132  0.000000000     0.000000000  0.071428571  0.000000000
     0.000000000  0.000000000  0.034658561     0.000000000  0.000000000  1.000000000

  Length of vectors
     0.013342126  0.013342132  0.034658561

  Shift w.r.t. Gamma in fractional coordinates (k-lattice)
     0.000000000  0.000000000  0.000000000

 
 Subroutine IBZKPT returns following result:
 ===========================================
 
 Found     34 irreducible k-points:
 
 Following reciprocal coordinates:
            Coordinates               Weight
  0.000000  0.000000  0.000000      1.000000
  0.071429  0.000000  0.000000      6.000000
  0.142857  0.000000  0.000000      6.000000
  0.214286  0.000000  0.000000      6.000000
  0.285714  0.000000  0.000000      6.000000
  0.357143  0.000000  0.000000      6.000000
  0.428571  0.000000  0.000000      6.000000
  0.500000  0.000000  0.000000      3.000000
  0.071429  0.071429  0.000000      6.000000
  0.142857  0.071429  0.000000      6.000000
 -0.142857  0.214286  0.000000      6.000000
  0.214286  0.071429  0.000000      6.000000
 -0.214286  0.285714  0.000000      6.000000
  0.285714  0.071429  0.000000      6.000000
 -0.285714  0.357143  0.000000      6.000000
  0.357143  0.071429  0.000000      6.000000
 -0.357143  0.428571  0.000000      6.000000
  0.428571  0.071429  0.000000      6.000000
 -0.428571  0.500000  0.000000      6.000000
  0.142857  0.142857  0.000000      6.000000
  0.214286  0.142857  0.000000      6.000000
 -0.214286  0.357143  0.000000      6.000000
  0.285714  0.142857  0.000000      6.000000
 -0.285714  0.428571  0.000000      6.000000
  0.357143  0.142857  0.000000      6.000000
 -0.357143  0.500000  0.000000      6.000000
  0.428571  0.142857  0.000000      6.000000
  0.214286  0.214286  0.000000      6.000000
  0.285714  0.214286  0.000000      6.000000
 -0.285714  0.500000  0.000000      6.000000
  0.357143  0.214286  0.000000      6.000000
 -0.357143 -0.428571  0.000000      6.000000
  0.285714  0.285714  0.000000      6.000000
  0.357143  0.285714  0.000000      6.000000
 
 Following cartesian coordinates:
            Coordinates               Weight
  0.000000  0.000000  0.000000      1.000000
  0.011555  0.006671  0.000000      6.000000
  0.023109  0.013342  0.000000      6.000000
  0.034664  0.020013  0.000000      6.000000
  0.046218  0.026684  0.000000      6.000000
  0.057773  0.033355  0.000000      6.000000
  0.069328  0.040026  0.000000      6.000000
  0.080882  0.046697  0.000000      3.000000
  0.011555  0.020013  0.000000      6.000000
  0.023109  0.026684  0.000000      6.000000
 -0.023109  0.026684  0.000000      6.000000
  0.034664  0.033355  0.000000      6.000000
 -0.034664  0.033355  0.000000      6.000000
  0.046218  0.040026  0.000000      6.000000
 -0.046218  0.040026  0.000000      6.000000
  0.057773  0.046697  0.000000      6.000000
 -0.057773  0.046697  0.000000      6.000000
  0.069328  0.053369  0.000000      6.000000
 -0.069328  0.053369  0.000000      6.000000
  0.023109  0.040026  0.000000      6.000000
  0.034664  0.046697  0.000000      6.000000
 -0.034664  0.046697  0.000000      6.000000
  0.046218  0.053369  0.000000      6.000000
 -0.046218  0.053369  0.000000      6.000000
  0.057773  0.060040  0.000000      6.000000
 -0.057773  0.060040  0.000000      6.000000
  0.069328  0.066711  0.000000      6.000000
  0.034664  0.060040  0.000000      6.000000
  0.046218  0.066711  0.000000      6.000000
 -0.046218  0.066711  0.000000      6.000000
  0.057773  0.073382  0.000000      6.000000
 -0.057773 -0.113408  0.000000      6.000000
  0.046218  0.080053  0.000000      6.000000
  0.057773  0.086724  0.000000      6.000000
 


--------------------------------------------------------------------------------------------------------




 Dimension of arrays:
   k-points           NKPTS =     34   k-points in BZ     NKDIM =     34   number of bands    NBANDS=     64
   number of dos      NEDOS =    301   number of ions     NIONS =      8
   non local maximal  LDIM  =      6   non local SUM 2l+1 LMDIM =     18
   total plane-waves  NPLWV = 483840
   max r-space proj   IRMAX =      1   max aug-charges    IRDMAX= 144579
   dimension x,y,z NGX =    48 NGY =   48 NGZ =  210
   dimension x,y,z NGXF=    96 NGYF=   96 NGZF=  420
   support grid    NGXF=   192 NGYF=  192 NGZF=  840
   ions per type =               2   6
   NGX,Y,Z   is equivalent  to a cutoff of  12.91, 12.91, 12.10 a.u.
   NGXF,Y,Z  is equivalent  to a cutoff of  25.82, 25.82, 24.20 a.u.

 SYSTEM =  unknown system                          
 POSCAR =  Fe Cl                                   

 Startparameter for this run:
   NWRITE =      2    write-flag & timer
   PREC   = accura    normal or accurate (medium, high low for compatibility)
   ISTART =      0    job   : 0-new  1-cont  2-samecut
   ICHARG =      2    charge: 1-file 2-atom 10-const
   ISPIN  =      2    spin polarized calculation?
   LNONCOLLINEAR =      F non collinear calculations
   LSORBIT =      F    spin-orbit coupling
   INIWAV =      1    electr: 0-lowe 1-rand  2-diag
   LASPH  =      T    aspherical Exc in radial PAW
 Electronic Relaxation 1
   ENCUT  =  500.0 eV  36.75 Ry    6.06 a.u.  11.27 11.27 52.61*2*pi/ulx,y,z
   ENINI  =  500.0     initial cutoff
   ENAUG  =  511.4 eV  augmentation charge cutoff
   NELM   =     90;   NELMIN=  6; NELMDL=  0     # of ELM steps 
   EDIFF  = 0.1E-05   stopping-criterion for ELM
   LREAL  =      F    real-space projection
   NLSPLINE    = F    spline interpolate recip. space projectors
   LCOMPAT=      F    compatible to vasp.4.4
   GGA_COMPAT  = T    GGA compatible to vasp.4.4-vasp.4.6
   LMAXPAW     = -100 max onsite density
   LMAXMIX     =    2 max onsite mixed and CHGCAR
   VOSKOWN=      0    Vosko Wilk Nusair interpolation
   ROPT   =    0.00000   0.00000
 Ionic relaxation
   EDIFFG = -.2E-01   stopping-criterion for IOM
   NSW    =      0    number of steps for IOM
   NBLOCK =      1;   KBLOCK =      1    inner block; outer block 
   IBRION =     -1    ionic relax: 0-MD 1-quasi-New 2-CG
   NFREE  =      1    steps in history (QN), initial steepest desc. (CG)
   ISIF   =      2    stress and relaxation
   IWAVPR =     10    prediction:  0-non 1-charg 2-wave 3-comb
   ISYM   =      2    0-nonsym 1-usesym 2-fastsym
   LCORR  =      T    Harris-Foulkes like correction to forces

   POTIM  = 0.5000    time-step for ionic-motion
   TEIN   =    0.0    initial temperature
   TEBEG  =    0.0;   TEEND  =   0.0 temperature during run
   SMASS  =  -3.00    Nose mass-parameter (am)
   estimated Nose-frequenzy (Omega)   =  0.10E-29 period in steps = 0.13E+47 mass=  -0.873E-27a.u.
   SCALEE = 1.0000    scale energy and forces
   NPACO  =    256;   APACO  = 10.0  distance and # of slots for P.C.
   PSTRESS=    0.0 pullay stress

  Mass of Ions in am
   POMASS =  55.85 35.45
  Ionic Valenz
   ZVAL   =   8.00  7.00
  Atomic Wigner-Seitz radii
   RWIGS  =  -1.00 -1.00
  virtual crystal weights 
   VCA    =   1.00  1.00
   NELECT =      58.0000    total number of electrons
   NUPDOWN=      -1.0000    fix difference up-down

 DOS related values:
   EMIN   =  10.00;   EMAX   =-10.00  energy-range for DOS
   EFERMI =   0.00;   METHOD = LEGACY      
   ISMEAR =     0;   SIGMA  =   0.05  broadening in eV -4-tet -1-fermi 0-gaus

 Electronic relaxation 2 (details)
   IALGO  =     38    algorithm
   LDIAG  =      T    sub-space diagonalisation (order eigenvalues)
   LSUBROT=      F    optimize rotation matrix (better conditioning)
   TURBO    =      0    0=normal 1=particle mesh
   IRESTART =      0    0=no restart 2=restart with 2 vectors
   NREBOOT  =      0    no. of reboots
   NMIN     =      0    reboot dimension
   EREF     =   0.00    reference energy to select bands
   IMIX   =      4    mixing-type and parameters
     AMIX     =   0.40;   BMIX     =  1.00
     AMIX_MAG =   1.60;   BMIX_MAG =  1.00
     AMIN     =   0.10
     WC   =   100.;   INIMIX=   1;  MIXPRE=   1;  MAXMIX= -45

 Intra band minimization:
   WEIMIN = 0.0000     energy-eigenvalue tresh-hold
   EBREAK =  0.39E-08  absolut break condition
   DEPER  =   0.30     relativ break condition  

   TIME   =   0.40     timestep for ELM

  volume/ion in A,a.u.               =     119.36       805.49
  Fermi-wavevector in a.u.,A,eV,Ry     =   0.643527  1.216089  5.634537  0.414127
  Thomas-Fermi vector in A             =   1.710556
 
 Write flags
   LWAVE        =      F    write WAVECAR
   LDOWNSAMPLE  =      F    k-point downsampling of WAVECAR
   LCHARG       =      F    write CHGCAR
   LVTOT        =      F    write LOCPOT, total local potential
   LVHAR        =      F    write LOCPOT, Hartree potential only
   WRT_POTENTIAL= false  ! write potential to hdf5 file
   LELF         =      F    write electronic localiz. function (ELF)
   LORBIT       =      0    0 simple, 1 ext, 2 COOP (PROOUT), +10 PAW based schemes


 Dipole corrections
   LMONO      =      F    monopole corrections only (constant potential shift)
   LDIPOL     =      F    correct potential (dipole corrections)
   IDIPOL     =      0    1-x, 2-y, 3-z, 4-all directions 
   EPSILON    =  1.0000000 bulk dielectric constant
   LVACPOTAV  =      F  vacuum potentials using an averaging scheme for the charge density
   VACPOTFLAT =  0.1000000 required flatness to determine vacuum potential
 LDA+U is selected, type is set to LDAUTYPE =  2
   angular momentum for each species LDAUL =     2   -1
   U (eV)           for each species LDAUU =   4.5  0.0
   J (eV)           for each species LDAUJ =   0.9  0.0
 Exchange correlation treatment:
   GGA     = PE    functional components
   XC_C    = 1    coefficients multiplying the functional components
   LIBXC   =     F    Libxc                    
   VOSKOWN =     0    Vosko Wilk Nusair interpolation
   LHFCALC =     F    Hartree Fock is set to
   LHFONE  =     F    Hartree Fock one center treatment
   AEXX    =    0.0000 exact exchange contribution

 Parameters of functionals:
   PE:
     No parameter
 
 Van der Waals corrections
   IVDW    =     0    specifies the selected vdW correction

 Linear response parameters
   LEPSILON=     F    determine dielectric tensor
   LRPA    =     F    only Hartree local field effects (RPA)
   LNABLA  =     F    use nabla operator in PAW spheres
   LVEL    =     F    velocity operator in full k-point grid
   CSHIFT  =0.1000    complex shift for real part using Kramers Kronig
   OMEGAMAX=  -1.0    maximum frequency
   DEG_THRESHOLD= 0.2000000E-02 threshold for treating states as degnerate
   RTIME   =   -0.100 relaxation time in fs
  (WPLASMAI=    0.000 imaginary part of plasma frequency in eV, 0.658/RTIME)
   DFIELD  = 0.0000000 0.0000000 0.0000000 field for delta impulse in time
 
  Optional k-point grid parameters
   LKPOINTS_OPT  =     F    use optional k-point grid
   KPOINTS_OPT_MODE=     1    mode for optional k-point grid
 
 Orbital magnetization related:
   ORBITALMAG=     F  switch on orbital magnetization
   LCHIMAG   =     F  perturbation theory with respect to B field
   DQ        =  0.001000  dq finite difference perturbation B field
   LLRAUG    =     F  two centre corrections for induced B field
   LBONE     =     F  B-component reconstruction in AE one-centre
   LVGVCALC  =     T  calculate vGv susceptibility
   LVGVAPPL  =     F  apply vGv susceptibility instead of pGv for G=0

 Random number generation:
   RANDOM_GENERATOR = DEFAULT
   PCG_SEED         = not used


--------------------------------------------------------------------------------------------------------


 Static calculation
 charge density and potential will be updated during run
 spin polarized calculation
 Variant of blocked Davidson
 Davidson routine will perform the subspace rotation
 perform sub-space diagonalisation
    after iterative eigenvector-optimisation
 modified Broyden-mixing scheme, WC =      100.0
 initial mixing is a Kerker type mixing with AMIX =  0.4000 and BMIX =      1.0000
 Hartree-type preconditioning will be used
 using additional bands           35
 reciprocal scheme for non local part
 use partial core corrections
 calculate Harris-corrections to forces 
   (improved forces if not selfconsistent)
 use gradient corrections 
 use of overlap-Matrix (Vanderbilt PP)
 Gauss-broadening in eV      SIGMA  =   0.05


--------------------------------------------------------------------------------------------------------


  energy-cutoff  :      500.00
  volume of cell :      954.89
      direct lattice vectors                 reciprocal lattice vectors
     6.181820000  0.000000000  0.000000000     0.161764658  0.093394924  0.000000000
    -3.090910000  5.353610000  0.000000000     0.000000000  0.186789848  0.000000000
     0.000000000  0.000000000 28.852900000     0.000000000  0.000000000  0.034658561

  length of vectors
     6.181820000  6.181817262 28.852900000     0.186789766  0.186789848  0.034658561


 
 k-points in units of 2pi/SCALE and weight: K-Spacing Value to Generate K-Mesh: 0.04
   0.00000000  0.00000000  0.00000000       0.005
   0.01155462  0.00667107  0.00000000       0.031
   0.02310924  0.01334213  0.00000000       0.031
   0.03466386  0.02001320  0.00000000       0.031
   0.04621847  0.02668426  0.00000000       0.031
   0.05777309  0.03335533  0.00000000       0.031
   0.06932771  0.04002640  0.00000000       0.031
   0.08088233  0.04669746  0.00000000       0.015
   0.01155462  0.02001320  0.00000000       0.031
   0.02310924  0.02668426  0.00000000       0.031
  -0.02310924  0.02668426  0.00000000       0.031
   0.03466386  0.03335533  0.00000000       0.031
  -0.03466386  0.03335533  0.00000000       0.031
   0.04621847  0.04002640  0.00000000       0.031
  -0.04621847  0.04002640  0.00000000       0.031
   0.05777309  0.04669746  0.00000000       0.031
  -0.05777309  0.04669746  0.00000000       0.031
   0.06932771  0.05336853  0.00000000       0.031
  -0.06932771  0.05336853  0.00000000       0.031
   0.02310924  0.04002640  0.00000000       0.031
   0.03466386  0.04669746  0.00000000       0.031
  -0.03466386  0.04669746  0.00000000       0.031
   0.04621847  0.05336853  0.00000000       0.031
  -0.04621847  0.05336853  0.00000000       0.031
   0.05777309  0.06003959  0.00000000       0.031
  -0.05777309  0.06003959  0.00000000       0.031
   0.06932771  0.06671066  0.00000000       0.031
   0.03466386  0.06003959  0.00000000       0.031
   0.04621847  0.06671066  0.00000000       0.031
  -0.04621847  0.06671066  0.00000000       0.031
   0.05777309  0.07338173  0.00000000       0.031
  -0.05777309 -0.11340812  0.00000000       0.031
   0.04621847  0.08005279  0.00000000       0.031
   0.05777309  0.08672386  0.00000000       0.031
 
 k-points in reciprocal lattice and weights: K-Spacing Value to Generate K-Mesh: 0.04
   0.00000000  0.00000000  0.00000000       0.005
   0.07142857  0.00000000  0.00000000       0.031
   0.14285714  0.00000000  0.00000000       0.031
   0.21428571  0.00000000  0.00000000       0.031
   0.28571429  0.00000000  0.00000000       0.031
   0.35714286  0.00000000  0.00000000       0.031
   0.42857143  0.00000000  0.00000000       0.031
   0.50000000  0.00000000  0.00000000       0.015
   0.07142857  0.07142857  0.00000000       0.031
   0.14285714  0.07142857  0.00000000       0.031
  -0.14285714  0.21428571  0.00000000       0.031
   0.21428571  0.07142857  0.00000000       0.031
  -0.21428571  0.28571429  0.00000000       0.031
   0.28571429  0.07142857  0.00000000       0.031
  -0.28571429  0.35714286  0.00000000       0.031
   0.35714286  0.07142857  0.00000000       0.031
  -0.35714286  0.42857143  0.00000000       0.031
   0.42857143  0.07142857  0.00000000       0.031
  -0.42857143  0.50000000  0.00000000       0.031
   0.14285714  0.14285714  0.00000000       0.031
   0.21428571  0.14285714  0.00000000       0.031
  -0.21428571  0.35714286  0.00000000       0.031
   0.28571429  0.14285714  0.00000000       0.031
  -0.28571429  0.42857143  0.00000000       0.031
   0.35714286  0.14285714  0.00000000       0.031
  -0.35714286  0.50000000  0.00000000       0.031
   0.42857143  0.14285714  0.00000000       0.031
   0.21428571  0.21428571  0.00000000       0.031
   0.28571429  0.21428571  0.00000000       0.031
  -0.28571429  0.50000000  0.00000000       0.031
   0.35714286  0.21428571  0.00000000       0.031
  -0.35714286 -0.42857143  0.00000000       0.031
   0.28571429  0.28571429  0.00000000       0.031
   0.35714286  0.28571429  0.00000000       0.031
 
 position of ions in fractional coordinates (direct lattice) 
   0.99999950  0.99999995  0.22607942
   0.66666753  0.33333306  0.22647401
   0.96849466  0.66702112  0.27404572
   0.33297919  0.30147352  0.27404567
   0.69852599  0.03150494  0.27404587
   0.96692409  0.30065386  0.17842632
   0.69934609  0.66627681  0.17842676
   0.33372295  0.03307674  0.17842622
 
 position of ions in cartesian coordinates  (Angst):
   3.09090707  5.35360971  6.52304701
   3.09091619  1.78453523  6.53443199
   3.92535743  3.57097092  7.90701372
   1.12658987  1.61397167  7.90701225
   4.22078301  0.16866514  7.90701818
   5.04805663  1.60958352  5.14811688
   2.26383000  3.56698617  5.14812956
   1.96077799  0.17707999  5.14811382
 


--------------------------------------------------------------------------------------------------------


 k-point     1 :   0.0000 0.0000 0.0000  plane waves:   24345
 k-point     2 :   0.0714 0.0000 0.0000  plane waves:   24307
 k-point     3 :   0.1429 0.0000 0.0000  plane waves:   24257
 k-point     4 :   0.2143 0.0000 0.0000  plane waves:   24251
 k-point     5 :   0.2857 0.0000 0.0000  plane waves:   24248
 k-point     6 :   0.3571 0.0000 0.0000  plane waves:   24230
 k-point     7 :   0.4286 0.0000 0.0000  plane waves:   24210
 k-point     8 :   0.5000 0.0000 0.0000  plane waves:   24244
 k-point     9 :   0.0714 0.0714 0.0000  plane waves:   24251
 k-point    10 :   0.1429 0.0714 0.0000  plane waves:   24246
 k-point    11 :  -0.1429 0.2143 0.0000  plane waves:   24246
 k-point    12 :   0.2143 0.0714 0.0000  plane waves:   24223
 k-point    13 :  -0.2143 0.2857 0.0000  plane waves:   24223
 k-point    14 :   0.2857 0.0714 0.0000  plane waves:   24238
 k-point    15 :  -0.2857 0.3571 0.0000  plane waves:   24238
 k-point    16 :   0.3571 0.0714 0.0000  plane waves:   24216
 k-point    17 :  -0.3571 0.4286 0.0000  plane waves:   24216
 k-point    18 :   0.4286 0.0714 0.0000  plane waves:   24258
 k-point    19 :  -0.4286 0.5000 0.0000  plane waves:   24258
 k-point    20 :   0.1429 0.1429 0.0000  plane waves:   24215
 k-point    21 :   0.2143 0.1429 0.0000  plane waves:   24239
 k-point    22 :  -0.2143 0.3571 0.0000  plane waves:   24239
 k-point    23 :   0.2857 0.1429 0.0000  plane waves:   24241
 k-point    24 :  -0.2857 0.4286 0.0000  plane waves:   24241
 k-point    25 :   0.3571 0.1429 0.0000  plane waves:   24261
 k-point    26 :  -0.3571 0.5000 0.0000  plane waves:   24261
 k-point    27 :   0.4286 0.1429 0.0000  plane waves:   24264
 k-point    28 :   0.2143 0.2143 0.0000  plane waves:   24221
 k-point    29 :   0.2857 0.2143 0.0000  plane waves:   24224
 k-point    30 :  -0.2857 0.5000 0.0000  plane waves:   24224
 k-point    31 :   0.3571 0.2143 0.0000  plane waves:   24263
 k-point    32 :  -0.3571-0.4286 0.0000  plane waves:   24263
 k-point    33 :   0.2857 0.2857 0.0000  plane waves:   24239
 k-point    34 :   0.3571 0.2857 0.0000  plane waves:   24253

 maximum and minimum number of plane-waves per node :     24345    24210

 maximum number of plane-waves:     24345
 maximum index in each direction: 
   IXMAX=   11   IYMAX=   11   IZMAX=   52
   IXMIN=  -11   IYMIN=  -11   IZMIN=  -52


 serial   3D FFT for wavefunctions
 parallel 3D FFT for charge:
    minimum data exchange during FFTs selected (reduces bandwidth)


 total amount of memory used by VASP MPI-rank0   393134. kBytes
=======================================================================

   base      :      30000. kBytes
   nonl-proj :     241571. kBytes
   fftplans  :      19623. kBytes
   grid      :      48494. kBytes
   one-center:        248. kBytes
   wavefun   :      53198. kBytes
 
     INWAV:  cpu time      0.0000: real time      0.0000
 Broyden mixing: mesh for mixing (old mesh)
   NGX = 23   NGY = 23   NGZ =105
  (NGX  = 96   NGY  = 96   NGZ  =420)
  gives a total of  55545 points

 initial charge density was supplied:
 charge density of overlapping atoms calculated
 number of electron      58.0000000 magnetization      10.0000000
 keeping initial charge density in first step


--------------------------------------------------------------------------------------------------------


 Maximum index for augmentation-charges         4185 (set IRDMAX)


--------------------------------------------------------------------------------------------------------


 First call to EWALD:  gamma=   0.180
 Maximum number of real-space cells 5x 5x 1
 Maximum number of reciprocal cells 2x 2x 7

    FEWALD:  cpu time      0.0019: real time      0.0020


--------------------------------------- Ionic step        1  -------------------------------------------




--------------------------------------- Iteration      1(   1)  ---------------------------------------


    POTLOK:  cpu time      0.1958: real time      0.2167
    SETDIJ:  cpu time      0.4498: real time      0.4518
     EDDAV:  cpu time     17.3598: real time     18.0364
       DOS:  cpu time      0.0186: real time      0.0375
    --------------------------------------------
      LOOP:  cpu time     18.0241: real time     18.7430

 eigenvalue-minimisations  :  8704
 total energy-change (2. order) : 0.4616459E+03  (-0.1748233E+04)
 number of electron      58.0000000 magnetization      10.0000000
 augmentation part       58.0000000 magnetization      10.0000000

 Free energy of the ion-electron system (eV)
  ---------------------------------------------------
  alpha Z        PSCENC =        21.49062660
  Ewald energy   TEWEN  =     13280.05188279
  -Hartree energ DENC   =    -16528.27081251
  -exchange      EXHF   =         0.00000000
  -V(xc)+E(xc)   XCENC  =       131.82077917
  PAW double counting   =      3055.14876058    -3050.95216630
  entropy T*S    EENTRO =        -0.01095662
  eigenvalues    EBANDS =       -94.59487249
  atomic energy  EATOM  =      3646.96265231
  Solvation  Ediel_sol  =         0.00000000
  ---------------------------------------------------
  free energy    TOTEN  =       461.64589353 eV

  energy without entropy =      461.65685015  energy(sigma->0) =      461.65137184


--------------------------------------------------------------------------------------------------------




--------------------------------------- Iteration      1(   2)  ---------------------------------------


     EDDAV:  cpu time     24.8714: real time     25.6420
       DOS:  cpu time      0.0042: real time      0.0210
    --------------------------------------------
      LOOP:  cpu time     24.8757: real time     25.6630

 eigenvalue-minimisations  : 13568
 total energy-change (2. order) :-0.4394170E+03  (-0.4045384E+03)
 number of electron      58.0000000 magnetization      10.0000000
 augmentation part       58.0000000 magnetization      10.0000000

 Free energy of the ion-electron system (eV)
  ---------------------------------------------------
  alpha Z        PSCENC =        21.49062660
  Ewald energy   TEWEN  =     13280.05188279
  -Hartree energ DENC   =    -16528.27081251
  -exchange      EXHF   =         0.00000000
  -V(xc)+E(xc)   XCENC  =       131.82077917
  PAW double counting   =      3055.14876058    -3050.95216630
  entropy T*S    EENTRO =        -0.00000000
  eigenvalues    EBANDS =      -534.02284974
  atomic energy  EATOM  =      3646.96265231
  Solvation  Ediel_sol  =         0.00000000
  ---------------------------------------------------
  free energy    TOTEN  =        22.22887290 eV

  energy without entropy =       22.22887290  energy(sigma->0) =       22.22887290


--------------------------------------------------------------------------------------------------------




--------------------------------------- Iteration      1(   3)  ---------------------------------------


     EDDAV:  cpu time     21.1943: real time     21.9561
       DOS:  cpu time      0.0073: real time      0.0300
    --------------------------------------------
      LOOP:  cpu time     21.2015: real time     21.9861

 eigenvalue-minimisations  : 11136
 total energy-change (2. order) :-0.6083020E+02  (-0.6048321E+02)
 number of electron      58.0000000 magnetization      10.0000000
 augmentation part       58.0000000 magnetization      10.0000000

 Free energy of the ion-electron system (eV)
  ---------------------------------------------------
  alpha Z        PSCENC =        21.49062660
  Ewald energy   TEWEN  =     13280.05188279
  -Hartree energ DENC   =    -16528.27081251
  -exchange      EXHF   =         0.00000000
  -V(xc)+E(xc)   XCENC  =       131.82077917
  PAW double counting   =      3055.14876058    -3050.95216630
  entropy T*S    EENTRO =        -0.00000000
  eigenvalues    EBANDS =      -594.85304804
  atomic energy  EATOM  =      3646.96265231
  Solvation  Ediel_sol  =         0.00000000
  ---------------------------------------------------
  free energy    TOTEN  =       -38.60132540 eV

  energy without entropy =      -38.60132540  energy(sigma->0) =      -38.60132540


--------------------------------------------------------------------------------------------------------




--------------------------------------- Iteration      1(   4)  ---------------------------------------


     EDDAV:  cpu time     22.7583: real time     23.4382
       DOS:  cpu time      0.0068: real time      0.0281
    --------------------------------------------
      LOOP:  cpu time     22.7650: real time     23.4663

 eigenvalue-minimisations  : 12192
 total energy-change (2. order) :-0.1489351E+01  (-0.1487503E+01)
 number of electron      58.0000000 magnetization      10.0000000
 augmentation part       58.0000000 magnetization      10.0000000

 Free energy of the ion-electron system (eV)
  ---------------------------------------------------
  alpha Z        PSCENC =        21.49062660
  Ewald energy   TEWEN  =     13280.05188279
  -Hartree energ DENC   =    -16528.27081251
  -exchange      EXHF   =         0.00000000
  -V(xc)+E(xc)   XCENC  =       131.82077917
  PAW double counting   =      3055.14876058    -3050.95216630
  entropy T*S    EENTRO =        -0.00000000
  eigenvalues    EBANDS =      -596.34239901
  atomic energy  EATOM  =      3646.96265231
  Solvation  Ediel_sol  =         0.00000000
  ---------------------------------------------------
  free energy    TOTEN  =       -40.09067637 eV

  energy without entropy =      -40.09067637  energy(sigma->0) =      -40.09067637


--------------------------------------------------------------------------------------------------------




--------------------------------------- Iteration      1(   5)  ---------------------------------------


     EDDAV:  cpu time     22.9726: real time     23.6344
       DOS:  cpu time      0.0068: real time      0.0352
    CHARGE:  cpu time      1.0084: real time      1.0481
    MIXING:  cpu time      0.0148: real time      0.0253
    --------------------------------------------
      LOOP:  cpu time     24.0031: real time     24.7489

 eigenvalue-minimisations  : 12416
 total energy-change (2. order) :-0.4027000E-01  (-0.4026682E-01)
 number of electron      58.0000000 magnetization      10.0000000
 augmentation part        0.7549814 magnetization       6.4271236

 Broyden mixing:
  rms(total) = 0.23650E+01    rms(broyden)= 0.23649E+01
  rms(prec ) = 0.24460E+01
  weight for this iteration     100.00

 Free energy of the ion-electron system (eV)
  ---------------------------------------------------
  alpha Z        PSCENC =        21.49062660
  Ewald energy   TEWEN  =     13280.05188279
  -Hartree energ DENC   =    -16528.27081251
  -exchange      EXHF   =         0.00000000
  -V(xc)+E(xc)   XCENC  =       131.82077917
  PAW double counting   =      3055.14876058    -3050.95216630
  entropy T*S    EENTRO =        -0.00000000
  eigenvalues    EBANDS =      -596.38266901
  atomic energy  EATOM  =      3646.96265231
  Solvation  Ediel_sol  =         0.00000000
  ---------------------------------------------------
  free energy    TOTEN  =       -40.13094637 eV

  energy without entropy =      -40.13094637  energy(sigma->0) =      -40.13094637


--------------------------------------------------------------------------------------------------------




--------------------------------------- Iteration      1(   6)  ---------------------------------------


    POTLOK:  cpu time      0.1794: real time      0.2239
    SETDIJ:  cpu time      0.4527: real time      0.4601
     EDDAV:  cpu time     18.5636: real time     19.2498
       DOS:  cpu time      0.0049: real time      0.0248
    CHARGE:  cpu time      0.9983: real time      1.0236
    MIXING:  cpu time      0.0173: real time      0.0626
    --------------------------------------------
      LOOP:  cpu time     20.2157: real time     21.0394

 eigenvalue-minimisations  :  9568
 total energy-change (2. order) : 0.9403830E+01  (-0.6580099E+01)
 number of electron      58.0000000 magnetization       9.9999056
 augmentation part        3.6198281 magnetization       5.5551605

 Broyden mixing:
  rms(total) = 0.43617E+01    rms(broyden)= 0.43617E+01
  rms(prec ) = 0.43731E+01
  weight for this iteration     100.00

 eigenvalues of (default mixing * dielectric matrix)
  average eigenvalue GAMMA=   0.0383
  0.0383

 Free energy of the ion-electron system (eV)
  ---------------------------------------------------
  alpha Z        PSCENC =        21.49062660
  Ewald energy   TEWEN  =     13280.05188279
  -Hartree energ DENC   =    -16468.34766415
  -exchange      EXHF   =         0.00000000
  -V(xc)+E(xc)   XCENC  =       134.93025870
  PAW double counting   =      3355.08960844    -3343.32029174
  entropy T*S    EENTRO =        -0.00084315
  eigenvalues    EBANDS =      -657.58334580
  atomic energy  EATOM  =      3646.96265231
  Solvation  Ediel_sol  =         0.00000000
  ---------------------------------------------------
  free energy    TOTEN  =       -30.72711598 eV

  energy without entropy =      -30.72627284  energy(sigma->0) =      -30.72669441


--------------------------------------------------------------------------------------------------------




--------------------------------------- Iteration      1(   7)  ---------------------------------------


    POTLOK:  cpu time      0.1748: real time      0.2034
    SETDIJ:  cpu time      0.4493: real time      0.4575
     EDDAV:  cpu time     22.6219: real time     23.0909
       DOS:  cpu time      0.0032: real time      0.0190
    CHARGE:  cpu time      0.9975: real time      1.0265
    MIXING:  cpu time      0.0152: real time      0.0506
    --------------------------------------------
      LOOP:  cpu time     24.2620: real time     24.8479

 eigenvalue-minimisations  : 12160
 total energy-change (2. order) : 0.3309549E-01  (-0.4797256E+00)
 number of electron      58.0000000 magnetization      10.0011196
 augmentation part        3.1926034 magnetization       5.8813454

 Broyden mixing:
  rms(total) = 0.32200E+01    rms(broyden)= 0.32200E+01
  rms(prec ) = 0.32258E+01
  weight for this iteration     100.00

 eigenvalues of (default mixing * dielectric matrix)
  average eigenvalue GAMMA=   0.5830
  0.6788  0.4872

 Free energy of the ion-electron system (eV)
  ---------------------------------------------------
  alpha Z        PSCENC =        21.49062660
  Ewald energy   TEWEN  =     13280.05188279
  -Hartree energ DENC   =    -16472.82344898
  -exchange      EXHF   =         0.00000000
  -V(xc)+E(xc)   XCENC  =       134.27978449
  PAW double counting   =      3417.44841949    -3407.82100592
  entropy T*S    EENTRO =        -0.00000000
  eigenvalues    EBANDS =      -650.28293129
  atomic energy  EATOM  =      3646.96265231
  Solvation  Ediel_sol  =         0.00000000
  ---------------------------------------------------
  free energy    TOTEN  =       -30.69402050 eV

  energy without entropy =      -30.69402050  energy(sigma->0) =      -30.69402050


--------------------------------------------------------------------------------------------------------




--------------------------------------- Iteration      1(   8)  ---------------------------------------


    POTLOK:  cpu time      0.1738: real time      0.2047
    SETDIJ:  cpu time      0.4460: real time      0.4520
     EDDAV:  cpu time     24.0470: real time     25.0141
       DOS:  cpu time      0.0066: real time      0.0296
    CHARGE:  cpu time      0.9920: real time      1.0238
    MIXING:  cpu time      0.0182: real time      0.0541
    --------------------------------------------
      LOOP:  cpu time     25.6835: real time     26.7787

 eigenvalue-minimisations  : 12992
 total energy-change (2. order) : 0.2743926E+00  (-0.1465082E+00)
 number of electron      58.0000000 magnetization      10.0024792
 augmentation part        3.0474313 magnetization       6.0046460

 Broyden mixing:
  rms(total) = 0.22314E+01    rms(broyden)= 0.22314E+01
  rms(prec ) = 0.22363E+01
  weight for this iteration     100.00

 eigenvalues of (default mixing * dielectric matrix)
  average eigenvalue GAMMA=   0.8688
  0.3496  1.1284  1.1284

 Free energy of the ion-electron system (eV)
  ---------------------------------------------------
  alpha Z        PSCENC =        21.49062660
  Ewald energy   TEWEN  =     13280.05188279
  -Hartree energ DENC   =    -16466.15584260
  -exchange      EXHF   =         0.00000000
  -V(xc)+E(xc)   XCENC  =       134.79914485
  PAW double counting   =      3851.18202985    -3845.87634939
  entropy T*S    EENTRO =        -0.00000000
  eigenvalues    EBANDS =      -652.87377230
  atomic energy  EATOM  =      3646.96265231
  Solvation  Ediel_sol  =         0.00000000
  ---------------------------------------------------
  free energy    TOTEN  =       -30.41962789 eV

  energy without entropy =      -30.41962789  energy(sigma->0) =      -30.41962789


--------------------------------------------------------------------------------------------------------




--------------------------------------- Iteration      1(   9)  ---------------------------------------


    POTLOK:  cpu time      0.1781: real time      0.2108
    SETDIJ:  cpu time      0.4506: real time      0.4705
     EDDAV:  cpu time     21.6610: real time     22.5228
       DOS:  cpu time      0.0062: real time      0.0285
    CHARGE:  cpu time      1.0046: real time      1.0317
    MIXING:  cpu time      0.0125: real time      0.0317
    --------------------------------------------
      LOOP:  cpu time     23.3130: real time     24.2952

 eigenvalue-minimisations  : 11488
 total energy-change (2. order) : 0.2084022E+00  (-0.1031411E+00)
 number of electron      58.0000000 magnetization      10.0026275
 augmentation part        2.7487988 magnetization       6.0861897

 Broyden mixing:
  rms(total) = 0.66736E+00    rms(broyden)= 0.66736E+00
  rms(prec ) = 0.67122E+00
  weight for this iteration     100.00

 eigenvalues of (default mixing * dielectric matrix)
  average eigenvalue GAMMA=   1.0377
  1.5823  1.5823  0.3604  0.6259

 Free energy of the ion-electron system (eV)
  ---------------------------------------------------
  alpha Z        PSCENC =        21.49062660
  Ewald energy   TEWEN  =     13280.05188279
  -Hartree energ DENC   =    -16464.59426550
  -exchange      EXHF   =         0.00000000
  -V(xc)+E(xc)   XCENC  =       133.65204313
  PAW double counting   =      4285.38413491    -4285.85387159
  entropy T*S    EENTRO =        -0.00000000
  eigenvalues    EBANDS =      -647.30442831
  atomic energy  EATOM  =      3646.96265231
  Solvation  Ediel_sol  =         0.00000000
  ---------------------------------------------------
  free energy    TOTEN  =       -30.21122565 eV

  energy without entropy =      -30.21122565  energy(sigma->0) =      -30.21122565


--------------------------------------------------------------------------------------------------------




--------------------------------------- Iteration      1(  10)  ---------------------------------------


    POTLOK:  cpu time      0.1713: real time      0.1937
    SETDIJ:  cpu time      0.4452: real time      0.4531
     EDDAV:  cpu time     21.0360: real time     21.5580
       DOS:  cpu time      0.0092: real time      0.0374
    CHARGE:  cpu time      1.0029: real time      1.0407
    MIXING:  cpu time      0.0078: real time      0.0316
    --------------------------------------------
      LOOP:  cpu time     22.6724: real time     23.3268

 eigenvalue-minimisations  : 11168
 total energy-change (2. order) : 0.2740121E-01  (-0.3180760E-01)
 number of electron      58.0000000 magnetization      10.0024811
 augmentation part        2.5828039 magnetization       6.1535153

 Broyden mixing:
  rms(total) = 0.24292E+00    rms(broyden)= 0.24291E+00
  rms(prec ) = 0.24433E+00
  weight for this iteration     100.00

 eigenvalues of (default mixing * dielectric matrix)
  average eigenvalue GAMMA=   1.1023
  2.2890  1.1246  1.1246  0.3587  0.6146

 Free energy of the ion-electron system (eV)
  ---------------------------------------------------
  alpha Z        PSCENC =        21.49062660
  Ewald energy   TEWEN  =     13280.05188279
  -Hartree energ DENC   =    -16468.81233906
  -exchange      EXHF   =         0.00000000
  -V(xc)+E(xc)   XCENC  =       133.41894751
  PAW double counting   =      4337.15795950    -4339.43907139
  entropy T*S    EENTRO =        -0.00000000
  eigenvalues    EBANDS =      -641.01448272
  atomic energy  EATOM  =      3646.96265231
  Solvation  Ediel_sol  =         0.00000000
  ---------------------------------------------------
  free energy    TOTEN  =       -30.18382444 eV

  energy without entropy =      -30.18382444  energy(sigma->0) =      -30.18382444


--------------------------------------------------------------------------------------------------------




--------------------------------------- Iteration      1(  11)  ---------------------------------------


    POTLOK:  cpu time      0.1720: real time      0.2141
    SETDIJ:  cpu time      0.4468: real time      0.4553
     EDDAV:  cpu time     23.3339: real time     24.0158
       DOS:  cpu time      0.0047: real time      0.0231
    CHARGE:  cpu time      0.9962: real time      1.0285
    MIXING:  cpu time      0.0153: real time      0.0389
    --------------------------------------------
      LOOP:  cpu time     24.9696: real time     25.7724

 eigenvalue-minimisations  : 12704
 total energy-change (2. order) :-0.5516596E-02  (-0.1454633E-01)
 number of electron      58.0000000 magnetization      10.0021409
 augmentation part        2.4817265 magnetization       6.2146712

 Broyden mixing:
  rms(total) = 0.11366E+00    rms(broyden)= 0.11365E+00
  rms(prec ) = 0.11453E+00
  weight for this iteration     100.00

 eigenvalues of (default mixing * dielectric matrix)
  average eigenvalue GAMMA=   1.2318
  2.7461  1.4670  1.4670  0.3578  0.6764  0.6764

 Free energy of the ion-electron system (eV)
  ---------------------------------------------------
  alpha Z        PSCENC =        21.49062660
  Ewald energy   TEWEN  =     13280.05188279
  -Hartree energ DENC   =    -16471.97163391
  -exchange      EXHF   =         0.00000000
  -V(xc)+E(xc)   XCENC  =       133.48722049
  PAW double counting   =      4351.05924485    -4354.01281768
  entropy T*S    EENTRO =        -0.00000000
  eigenvalues    EBANDS =      -637.25651649
  atomic energy  EATOM  =      3646.96265231
  Solvation  Ediel_sol  =         0.00000000
  ---------------------------------------------------
  free energy    TOTEN  =       -30.18934103 eV

  energy without entropy =      -30.18934103  energy(sigma->0) =      -30.18934103


--------------------------------------------------------------------------------------------------------




--------------------------------------- Iteration      1(  12)  ---------------------------------------


    POTLOK:  cpu time      0.1749: real time      0.2231
    SETDIJ:  cpu time      0.4478: real time      0.4560
     EDDAV:  cpu time     23.2208: real time     23.7871
       DOS:  cpu time      0.0050: real time      0.0231
    CHARGE:  cpu time      0.9955: real time      1.0224
    MIXING:  cpu time      0.0140: real time      0.0702
    --------------------------------------------
      LOOP:  cpu time     24.8576: real time     25.5729

 eigenvalue-minimisations  : 12704
 total energy-change (2. order) :-0.1077851E-01  (-0.4733085E-02)
 number of electron      58.0000000 magnetization      10.0020143
 augmentation part        2.5210191 magnetization       6.1932537

 Broyden mixing:
  rms(total) = 0.33279E-01    rms(broyden)= 0.33275E-01
  rms(prec ) = 0.33632E-01
  weight for this iteration     100.00

 eigenvalues of (default mixing * dielectric matrix)
  average eigenvalue GAMMA=   1.1771
  2.5945  1.5274  1.5274  0.3578  0.9343  0.6493  0.6493

 Free energy of the ion-electron system (eV)
  ---------------------------------------------------
  alpha Z        PSCENC =        21.49062660
  Ewald energy   TEWEN  =     13280.05188279
  -Hartree energ DENC   =    -16472.85694505
  -exchange      EXHF   =         0.00000000
  -V(xc)+E(xc)   XCENC  =       133.53286540
  PAW double counting   =      4363.01403739    -4366.15280915
  entropy T*S    EENTRO =        -0.00000000
  eigenvalues    EBANDS =      -636.24242984
  atomic energy  EATOM  =      3646.96265231
  Solvation  Ediel_sol  =         0.00000000
  ---------------------------------------------------
  free energy    TOTEN  =       -30.20011954 eV

  energy without entropy =      -30.20011954  energy(sigma->0) =      -30.20011954


--------------------------------------------------------------------------------------------------------




--------------------------------------- Iteration      1(  13)  ---------------------------------------


    POTLOK:  cpu time      0.1746: real time      0.2060
    SETDIJ:  cpu time      0.4458: real time      0.4530
     EDDAV:  cpu time     22.2335: real time     22.8547
       DOS:  cpu time      0.0044: real time      0.0197
    CHARGE:  cpu time      0.9785: real time      1.0033
    MIXING:  cpu time      0.0145: real time      0.0386
    --------------------------------------------
      LOOP:  cpu time     23.8517: real time     24.5824

 eigenvalue-minimisations  : 11872
 total energy-change (2. order) :-0.2644231E-02  (-0.3518983E-03)
 number of electron      58.0000000 magnetization      10.0018902
 augmentation part        2.5222996 magnetization       6.1951765

 Broyden mixing:
  rms(total) = 0.16641E-01    rms(broyden)= 0.16641E-01
  rms(prec ) = 0.16859E-01
  weight for this iteration     100.00

 eigenvalues of (default mixing * dielectric matrix)
  average eigenvalue GAMMA=   1.1419
  2.6134  1.5462  1.5462  1.0295  0.3578  0.7621  0.6401  0.6401

 Free energy of the ion-electron system (eV)
  ---------------------------------------------------
  alpha Z        PSCENC =        21.49062660
  Ewald energy   TEWEN  =     13280.05188279
  -Hartree energ DENC   =    -16472.52879166
  -exchange      EXHF   =         0.00000000
  -V(xc)+E(xc)   XCENC  =       133.48382356
  PAW double counting   =      4355.19549271    -4358.20432464
  entropy T*S    EENTRO =        -0.00000000
  eigenvalues    EBANDS =      -636.65412546
  atomic energy  EATOM  =      3646.96265231
  Solvation  Ediel_sol  =         0.00000000
  ---------------------------------------------------
  free energy    TOTEN  =       -30.20276377 eV

  energy without entropy =      -30.20276377  energy(sigma->0) =      -30.20276377


--------------------------------------------------------------------------------------------------------




--------------------------------------- Iteration      1(  14)  ---------------------------------------


    POTLOK:  cpu time      0.1783: real time      0.2245
    SETDIJ:  cpu time      0.4467: real time      0.4526
     EDDAV:  cpu time     23.4156: real time     24.0992
       DOS:  cpu time      0.0049: real time      0.0239
    CHARGE:  cpu time      0.9877: real time      1.0211
    MIXING:  cpu time      0.0154: real time      0.0361
    --------------------------------------------
      LOOP:  cpu time     25.0479: real time     25.8500

 eigenvalue-minimisations  : 12736
 total energy-change (2. order) :-0.2035369E-02  (-0.6532753E-04)
 number of electron      58.0000000 magnetization      10.0017143
 augmentation part        2.5160512 magnetization       6.1996064

 Broyden mixing:
  rms(total) = 0.98294E-02    rms(broyden)= 0.98291E-02
  rms(prec ) = 0.98795E-02
  weight for this iteration     100.00

 eigenvalues of (default mixing * dielectric matrix)
  average eigenvalue GAMMA=   1.1367
  2.7063  1.5887  1.5887  0.3578  0.9787  0.9787  0.6881  0.6717  0.6717

 Free energy of the ion-electron system (eV)
  ---------------------------------------------------
  alpha Z        PSCENC =        21.49062660
  Ewald energy   TEWEN  =     13280.05188279
  -Hartree energ DENC   =    -16472.55580419
  -exchange      EXHF   =         0.00000000
  -V(xc)+E(xc)   XCENC  =       133.46882098
  PAW double counting   =      4352.66590081    -4355.67756622
  entropy T*S    EENTRO =        -0.00000000
  eigenvalues    EBANDS =      -636.61131223
  atomic energy  EATOM  =      3646.96265231
  Solvation  Ediel_sol  =         0.00000000
  ---------------------------------------------------
  free energy    TOTEN  =       -30.20479914 eV

  energy without entropy =      -30.20479914  energy(sigma->0) =      -30.20479914


--------------------------------------------------------------------------------------------------------




--------------------------------------- Iteration      1(  15)  ---------------------------------------


    POTLOK:  cpu time      0.1776: real time      0.2099
    SETDIJ:  cpu time      0.4476: real time      0.4548
     EDDAV:  cpu time     22.6493: real time     23.2977
       DOS:  cpu time      0.0045: real time      0.0209
    CHARGE:  cpu time      1.0053: real time      1.0357
    MIXING:  cpu time      0.0153: real time      0.0390
    --------------------------------------------
      LOOP:  cpu time     24.2996: real time     25.0580

 eigenvalue-minimisations  : 12256
 total energy-change (2. order) :-0.1645822E-02  (-0.1295950E-04)
 number of electron      58.0000000 magnetization      10.0014365
 augmentation part        2.5148763 magnetization       6.2009206

 Broyden mixing:
  rms(total) = 0.49620E-02    rms(broyden)= 0.49616E-02
  rms(prec ) = 0.50032E-02
  weight for this iteration     100.00

 eigenvalues of (default mixing * dielectric matrix)
  average eigenvalue GAMMA=   1.2379
  3.0535  1.7850  1.7850  1.2906  1.2906  0.3578  0.7606  0.7606  0.6475  0.6475

 Free energy of the ion-electron system (eV)
  ---------------------------------------------------
  alpha Z        PSCENC =        21.49062660
  Ewald energy   TEWEN  =     13280.05188279
  -Hartree energ DENC   =    -16472.50293747
  -exchange      EXHF   =         0.00000000
  -V(xc)+E(xc)   XCENC  =       133.47025872
  PAW double counting   =      4352.27550434    -4355.30331153
  entropy T*S    EENTRO =        -0.00000000
  eigenvalues    EBANDS =      -636.65112073
  atomic energy  EATOM  =      3646.96265231
  Solvation  Ediel_sol  =         0.00000000
  ---------------------------------------------------
  free energy    TOTEN  =       -30.20644497 eV

  energy without entropy =      -30.20644497  energy(sigma->0) =      -30.20644497


--------------------------------------------------------------------------------------------------------




--------------------------------------- Iteration      1(  16)  ---------------------------------------


    POTLOK:  cpu time      0.1702: real time      0.1969
    SETDIJ:  cpu time      0.4503: real time      0.4565
     EDDAV:  cpu time     22.3983: real time     23.3844
       DOS:  cpu time      0.0041: real time      0.0209
    CHARGE:  cpu time      0.9883: real time      1.0165
    MIXING:  cpu time      0.0142: real time      0.0385
    --------------------------------------------
      LOOP:  cpu time     24.0254: real time     25.1138

 eigenvalue-minimisations  : 12000
 total energy-change (2. order) :-0.1475609E-02  (-0.9971757E-05)
 number of electron      58.0000000 magnetization      10.0013258
 augmentation part        2.5171363 magnetization       6.1997578

 Broyden mixing:
  rms(total) = 0.31572E-02    rms(broyden)= 0.31572E-02
  rms(prec ) = 0.32173E-02
  weight for this iteration     100.00

 eigenvalues of (default mixing * dielectric matrix)
  average eigenvalue GAMMA=   1.2460
  3.1704  2.2937  1.6137  1.6137  0.3578  0.9519  0.9519  0.7447  0.7447  0.6529
  0.6104

 Free energy of the ion-electron system (eV)
  ---------------------------------------------------
  alpha Z        PSCENC =        21.49062660
  Ewald energy   TEWEN  =     13280.05188279
  -Hartree energ DENC   =    -16472.32460221
  -exchange      EXHF   =         0.00000000
  -V(xc)+E(xc)   XCENC  =       133.46657215
  PAW double counting   =      4351.02403112    -4354.06568296
  entropy T*S    EENTRO =        -0.00000000
  eigenvalues    EBANDS =      -636.81340038
  atomic energy  EATOM  =      3646.96265231
  Solvation  Ediel_sol  =         0.00000000
  ---------------------------------------------------
  free energy    TOTEN  =       -30.20792057 eV

  energy without entropy =      -30.20792057  energy(sigma->0) =      -30.20792057


--------------------------------------------------------------------------------------------------------




--------------------------------------- Iteration      1(  17)  ---------------------------------------


    POTLOK:  cpu time      0.1709: real time      0.2068
    SETDIJ:  cpu time      0.4464: real time      0.4560
     EDDAV:  cpu time     23.1975: real time     24.0316
       DOS:  cpu time      0.0042: real time      0.0392
    CHARGE:  cpu time      1.0020: real time      1.0267
    MIXING:  cpu time      0.0148: real time      0.0291
    --------------------------------------------
      LOOP:  cpu time     24.8359: real time     25.7893

 eigenvalue-minimisations  : 12480
 total energy-change (2. order) :-0.5167664E-03  (-0.3371864E-05)
 number of electron      58.0000000 magnetization      10.0012165
 augmentation part        2.5153284 magnetization       6.2006322

 Broyden mixing:
  rms(total) = 0.95498E-03    rms(broyden)= 0.95475E-03
  rms(prec ) = 0.99388E-03
  weight for this iteration     100.00

 eigenvalues of (default mixing * dielectric matrix)
  average eigenvalue GAMMA=   1.2248
  3.0938  2.3908  1.6358  1.6358  0.3578  1.0401  1.0401  0.7704  0.7704  0.7098
  0.6262  0.6262

 Free energy of the ion-electron system (eV)
  ---------------------------------------------------
  alpha Z        PSCENC =        21.49062660
  Ewald energy   TEWEN  =     13280.05188279
  -Hartree energ DENC   =    -16472.30527798
  -exchange      EXHF   =         0.00000000
  -V(xc)+E(xc)   XCENC  =       133.46096444
  PAW double counting   =      4350.06383626    -4353.10551570
  entropy T*S    EENTRO =        -0.00000000
  eigenvalues    EBANDS =      -636.82760607
  atomic energy  EATOM  =      3646.96265231
  Solvation  Ediel_sol  =         0.00000000
  ---------------------------------------------------
  free energy    TOTEN  =       -30.20843734 eV

  energy without entropy =      -30.20843734  energy(sigma->0) =      -30.20843734


--------------------------------------------------------------------------------------------------------




--------------------------------------- Iteration      1(  18)  ---------------------------------------


    POTLOK:  cpu time      0.1679: real time      0.1900
    SETDIJ:  cpu time      0.4499: real time      0.4581
     EDDAV:  cpu time     21.8226: real time     22.3377
       DOS:  cpu time      0.0062: real time      0.0288
    CHARGE:  cpu time      0.9838: real time      1.0200
    MIXING:  cpu time      0.0123: real time      0.0534
    --------------------------------------------
      LOOP:  cpu time     23.4427: real time     24.0882

 eigenvalue-minimisations  : 11680
 total energy-change (2. order) :-0.4832279E-03  (-0.3369571E-06)
 number of electron      58.0000000 magnetization      10.0010262
 augmentation part        2.5151326 magnetization       6.2005965

 Broyden mixing:
  rms(total) = 0.67806E-03    rms(broyden)= 0.67799E-03
  rms(prec ) = 0.72256E-03
  weight for this iteration     100.00

 eigenvalues of (default mixing * dielectric matrix)
  average eigenvalue GAMMA=   1.2130
  3.1928  2.3551  1.5895  1.4876  1.4876  0.3578  0.8822  0.8822  0.7921  0.7921
  0.6333  0.6580  0.6580

 Free energy of the ion-electron system (eV)
  ---------------------------------------------------
  alpha Z        PSCENC =        21.49062660
  Ewald energy   TEWEN  =     13280.05188279
  -Hartree energ DENC   =    -16472.25598275
  -exchange      EXHF   =         0.00000000
  -V(xc)+E(xc)   XCENC  =       133.46049412
  PAW double counting   =      4349.98263458    -4353.02446603
  entropy T*S    EENTRO =        -0.00000000
  eigenvalues    EBANDS =      -636.87676219
  atomic energy  EATOM  =      3646.96265231
  Solvation  Ediel_sol  =         0.00000000
  ---------------------------------------------------
  free energy    TOTEN  =       -30.20892057 eV

  energy without entropy =      -30.20892057  energy(sigma->0) =      -30.20892057


--------------------------------------------------------------------------------------------------------




--------------------------------------- Iteration      1(  19)  ---------------------------------------


    POTLOK:  cpu time      0.1735: real time      0.2056
    SETDIJ:  cpu time      0.4494: real time      0.4562
     EDDAV:  cpu time     21.6836: real time     22.1780
       DOS:  cpu time      0.0063: real time      0.0320
    CHARGE:  cpu time      0.9974: real time      1.0368
    MIXING:  cpu time      0.0108: real time      0.0444
    --------------------------------------------
      LOOP:  cpu time     23.3210: real time     23.9529

 eigenvalue-minimisations  : 11584
 total energy-change (2. order) :-0.6374852E-03  (-0.4728097E-06)
 number of electron      58.0000000 magnetization      10.0007848
 augmentation part        2.5155792 magnetization       6.2001287

 Broyden mixing:
  rms(total) = 0.59396E-03    rms(broyden)= 0.59394E-03
  rms(prec ) = 0.61989E-03
  weight for this iteration     100.00

 eigenvalues of (default mixing * dielectric matrix)
  average eigenvalue GAMMA=   1.2606
  3.3796  2.4153  2.3067  1.5766  1.5766  0.3578  0.9862  0.9862  0.7564  0.7564
  0.6516  0.6516  0.6240  0.6240

 Free energy of the ion-electron system (eV)
  ---------------------------------------------------
  alpha Z        PSCENC =        21.49062660
  Ewald energy   TEWEN  =     13280.05188279
  -Hartree energ DENC   =    -16472.18377633
  -exchange      EXHF   =         0.00000000
  -V(xc)+E(xc)   XCENC  =       133.46023609
  PAW double counting   =      4350.00433616    -4353.04780580
  entropy T*S    EENTRO =        -0.00000000
  eigenvalues    EBANDS =      -636.94770988
  atomic energy  EATOM  =      3646.96265231
  Solvation  Ediel_sol  =         0.00000000
  ---------------------------------------------------
  free energy    TOTEN  =       -30.20955805 eV

  energy without entropy =      -30.20955805  energy(sigma->0) =      -30.20955805


--------------------------------------------------------------------------------------------------------




--------------------------------------- Iteration      1(  20)  ---------------------------------------


    POTLOK:  cpu time      0.1734: real time      0.2066
    SETDIJ:  cpu time      0.4445: real time      0.4521
     EDDAV:  cpu time     22.1117: real time     23.0577
       DOS:  cpu time      0.0077: real time      0.0315
    CHARGE:  cpu time      1.0028: real time      1.0412
    MIXING:  cpu time      0.0122: real time      0.0412
    --------------------------------------------
      LOOP:  cpu time     23.7524: real time     24.8305

 eigenvalue-minimisations  : 11744
 total energy-change (2. order) :-0.6477039E-03  (-0.4288369E-06)
 number of electron      58.0000000 magnetization      10.0006526
 augmentation part        2.5156591 magnetization       6.1999370

 Broyden mixing:
  rms(total) = 0.55843E-03    rms(broyden)= 0.55840E-03
  rms(prec ) = 0.57411E-03
  weight for this iteration     100.00

 eigenvalues of (default mixing * dielectric matrix)
  average eigenvalue GAMMA=   1.2753
  3.5312  2.8392  2.2839  1.5850  1.5850  1.3063  0.3578  0.8469  0.8469  0.7419
  0.7419  0.6397  0.6397  0.5917  0.5917

 Free energy of the ion-electron system (eV)
  ---------------------------------------------------
  alpha Z        PSCENC =        21.49062660
  Ewald energy   TEWEN  =     13280.05188279
  -Hartree energ DENC   =    -16472.10621269
  -exchange      EXHF   =         0.00000000
  -V(xc)+E(xc)   XCENC  =       133.45901445
  PAW double counting   =      4349.98906341    -4353.03351689
  entropy T*S    EENTRO =        -0.00000000
  eigenvalues    EBANDS =      -637.02371575
  atomic energy  EATOM  =      3646.96265231
  Solvation  Ediel_sol  =         0.00000000
  ---------------------------------------------------
  free energy    TOTEN  =       -30.21020576 eV

  energy without entropy =      -30.21020576  energy(sigma->0) =      -30.21020576


--------------------------------------------------------------------------------------------------------




--------------------------------------- Iteration      1(  21)  ---------------------------------------


    POTLOK:  cpu time      0.1761: real time      0.2022
    SETDIJ:  cpu time      0.4443: real time      0.4526
     EDDAV:  cpu time     22.7945: real time     23.8438
       DOS:  cpu time      0.0059: real time      0.0720
    CHARGE:  cpu time      1.0013: real time      1.0338
    MIXING:  cpu time      0.0130: real time      0.0337
    --------------------------------------------
      LOOP:  cpu time     24.4348: real time     25.6377

 eigenvalue-minimisations  : 11936
 total energy-change (2. order) :-0.2957306E-03  (-0.2291737E-06)
 number of electron      58.0000000 magnetization      10.0004291
 augmentation part        2.5153094 magnetization       6.1998880

 Broyden mixing:
  rms(total) = 0.34147E-03    rms(broyden)= 0.34143E-03
  rms(prec ) = 0.34920E-03
  weight for this iteration     100.00

 eigenvalues of (default mixing * dielectric matrix)
  average eigenvalue GAMMA=   1.3956
  5.0624  3.1685  2.4616  1.6034  1.6034  1.3007  1.1403  0.3578  0.7846  0.7846
  0.7906  0.7906  0.6453  0.6453  0.6141  0.5762

 Free energy of the ion-electron system (eV)
  ---------------------------------------------------
  alpha Z        PSCENC =        21.49062660
  Ewald energy   TEWEN  =     13280.05188279
  -Hartree energ DENC   =    -16472.07811481
  -exchange      EXHF   =         0.00000000
  -V(xc)+E(xc)   XCENC  =       133.45771865
  PAW double counting   =      4350.00170964    -4353.04615840
  entropy T*S    EENTRO =        -0.00000000
  eigenvalues    EBANDS =      -637.05081828
  atomic energy  EATOM  =      3646.96265231
  Solvation  Ediel_sol  =         0.00000000
  ---------------------------------------------------
  free energy    TOTEN  =       -30.21050149 eV

  energy without entropy =      -30.21050149  energy(sigma->0) =      -30.21050149


--------------------------------------------------------------------------------------------------------




--------------------------------------- Iteration      1(  22)  ---------------------------------------


    POTLOK:  cpu time      0.1740: real time      0.2026
    SETDIJ:  cpu time      0.4518: real time      0.4596
     EDDAV:  cpu time     21.8990: real time     22.4756
       DOS:  cpu time      0.0047: real time      0.0219
    CHARGE:  cpu time      0.9922: real time      1.0192
    MIXING:  cpu time      0.0169: real time      0.0431
    --------------------------------------------
      LOOP:  cpu time     23.5387: real time     24.2222

 eigenvalue-minimisations  : 11712
 total energy-change (2. order) :-0.3855065E-03  (-0.3446608E-06)
 number of electron      58.0000000 magnetization      10.0003143
 augmentation part        2.5153441 magnetization       6.1997470

 Broyden mixing:
  rms(total) = 0.21191E-03    rms(broyden)= 0.21185E-03
  rms(prec ) = 0.21318E-03
  weight for this iteration     100.00

 eigenvalues of (default mixing * dielectric matrix)
  average eigenvalue GAMMA=   1.5158
  7.0850  3.1706  2.5327  1.7139  1.7139  1.3600  1.3600  0.3578  0.8808  0.8808
  0.7588  0.7588  0.6693  0.6693  0.6259  0.6259  0.6042

 Free energy of the ion-electron system (eV)
[...]
     34      -3.6836      0.00000
     35       1.5195      0.00000
     36       1.7609      0.00000
     37       1.9500      0.00000
     38       2.2619      0.00000
     39       2.3033      0.00000
     40       2.4835      0.00000
     41       2.6973      0.00000
     42       2.9674      0.00000
     43       3.1724      0.00000
     44       3.2307      0.00000
     45       3.3206      0.00000
     46       3.3612      0.00000
     47       3.4701      0.00000
     48       3.5880      0.00000
     49       3.6554      0.00000
     50       3.8504      0.00000
     51       3.9701      0.00000
     52       4.1104      0.00000
     53       4.1469      0.00000
     54       4.2260      0.00000
     55       4.2703      0.00000
     56       4.4944      0.00000
     57       4.5808      0.00000
     58       4.6931      0.00000
     59       4.8787      0.00000
     60       4.9403      0.00000
     61       5.0527      0.00000
     62       5.1016      0.00000
     63       5.3298      0.00000
     64       5.3905      0.00000

 k-point    33 :       0.2857    0.2857    0.0000
  band No.  band energies     occupation 
      1     -19.8317      1.00000
      2     -19.6778      1.00000
      3     -19.3945      1.00000
      4     -19.2921      1.00000
      5     -19.2355      1.00000
      6     -19.1618      1.00000
      7      -9.7524      1.00000
      8      -9.5391      1.00000
      9      -9.0515      1.00000
     10      -8.9846      1.00000
     11      -8.8690      1.00000
     12      -8.6278      1.00000
     13      -8.6089      1.00000
     14      -8.4495      1.00000
     15      -8.1594      1.00000
     16      -7.7275      1.00000
     17      -7.5994      1.00000
     18      -7.2794      1.00000
     19      -7.1859      1.00000
     20      -6.9689      1.00000
     21      -6.8757      1.00000
     22      -6.8124      1.00000
     23      -6.5931      1.00000
     24      -6.5908      1.00000
     25      -4.3509      0.00000
     26      -4.3022      0.00000
     27      -4.2662      0.00000
     28      -4.1710      0.00000
     29      -4.1326      0.00000
     30      -4.0629      0.00000
     31      -3.8665      0.00000
     32      -3.7927      0.00000
     33      -3.7676      0.00000
     34      -3.6741      0.00000
     35       1.5629      0.00000
     36       1.6903      0.00000
     37       1.9103      0.00000
     38       2.2798      0.00000
     39       2.3405      0.00000
     40       2.4661      0.00000
     41       2.9274      0.00000
     42       2.9496      0.00000
     43       2.9559      0.00000
     44       3.1886      0.00000
     45       3.3315      0.00000
     46       3.4220      0.00000
     47       3.4737      0.00000
     48       3.7325      0.00000
     49       3.7542      0.00000
     50       3.7918      0.00000
     51       3.8498      0.00000
     52       3.9676      0.00000
     53       4.0501      0.00000
     54       4.2990      0.00000
     55       4.3334      0.00000
     56       4.3767      0.00000
     57       4.5548      0.00000
     58       4.5691      0.00000
     59       4.9115      0.00000
     60       4.9455      0.00000
     61       5.0312      0.00000
     62       5.1071      0.00000
     63       5.3854      0.00000
     64       5.4346      0.00000

 k-point    34 :       0.3571    0.2857    0.0000
  band No.  band energies     occupation 
      1     -19.7865      1.00000
      2     -19.7215      1.00000
      3     -19.3993      1.00000
      4     -19.2739      1.00000
      5     -19.2511      1.00000
      6     -19.1636      1.00000
      7      -9.6921      1.00000
      8      -9.5788      1.00000
      9      -9.0333      1.00000
     10      -8.9575      1.00000
     11      -8.9343      1.00000
     12      -8.6175      1.00000
     13      -8.6004      1.00000
     14      -8.4454      1.00000
     15      -8.2215      1.00000
     16      -7.7354      1.00000
     17      -7.5074      1.00000
     18      -7.2722      1.00000
     19      -7.2033      1.00000
     20      -6.9961      1.00000
     21      -6.8808      1.00000
     22      -6.8056      1.00000
     23      -6.5990      1.00000
     24      -6.5908      1.00000
     25      -4.3386      0.00000
     26      -4.2935      0.00000
     27      -4.2808      0.00000
     28      -4.1816      0.00000
     29      -4.1211      0.00000
     30      -4.0848      0.00000
     31      -3.8644      0.00000
     32      -3.7812      0.00000
     33      -3.7690      0.00000
     34      -3.6672      0.00000
     35       1.5696      0.00000
     36       1.6614      0.00000
     37       2.0732      0.00000
     38       2.1883      0.00000
     39       2.3021      0.00000
     40       2.6405      0.00000
     41       2.6911      0.00000
     42       2.9363      0.00000
     43       3.1850      0.00000
     44       3.2637      0.00000
     45       3.3921      0.00000
     46       3.4010      0.00000
     47       3.4522      0.00000
     48       3.5375      0.00000
     49       3.6330      0.00000
     50       3.7174      0.00000
     51       3.8709      0.00000
     52       4.0410      0.00000
     53       4.0910      0.00000
     54       4.0981      0.00000
     55       4.2970      0.00000
     56       4.3243      0.00000
     57       4.4784      0.00000
     58       4.7118      0.00000
     59       4.7723      0.00000
     60       4.9619      0.00000
     61       5.1274      0.00000
     62       5.1782      0.00000
     63       5.2953      0.00000
     64       5.4286      0.00000


--------------------------------------------------------------------------------------------------------


 soft charge-density along one line, spin component           1
         0         1         2         3         4         5         6         7         8         9
 total charge-density along one line
 
 soft charge-density along one line, spin component           2
         0         1         2         3         4         5         6         7         8         9
 total charge-density along one line
 
 pseudopotential strength for first ion, spin component:           1
-16.606   0.018   0.000  -0.000   0.000 -16.905   0.015   0.000
  0.018 -16.583  -0.000  -0.000  -0.000   0.015 -16.885  -0.000
  0.000  -0.000 -16.619   0.000   0.000   0.000  -0.000 -16.915
 -0.000  -0.000   0.000 -16.583  -0.018  -0.000  -0.000   0.000
  0.000  -0.000   0.000  -0.018 -16.606   0.000  -0.000   0.000
-16.905   0.015   0.000  -0.000   0.000 -17.185   0.010   0.000
  0.015 -16.885  -0.000  -0.000  -0.000   0.010 -17.168  -0.000
  0.000  -0.000 -16.915   0.000   0.000   0.000  -0.000 -17.192
 -0.000  -0.000   0.000 -16.885  -0.015  -0.000  -0.000   0.000
  0.000  -0.000   0.000  -0.015 -16.905   0.000  -0.000   0.000
  0.000   0.000  -0.001  -0.000   0.000   0.000   0.000  -0.001
  0.000   0.000  -0.001  -0.000   0.000   0.000   0.000  -0.001
 -0.000   0.000   0.000  -0.000   0.002  -0.000   0.000   0.000
 -0.000  -0.000   0.000   0.000  -0.000  -0.000  -0.000   0.000
  0.002  -0.000  -0.000   0.000   0.000   0.002  -0.000  -0.000
 -0.000  -0.000   0.000  -0.000   0.003  -0.000  -0.000   0.000
 -0.000  -0.000   0.000   0.000  -0.000  -0.000  -0.000   0.000
  0.003  -0.000  -0.000  -0.000   0.000   0.003  -0.000  -0.000
 pseudopotential strength for first ion, spin component:           2
-10.998  -0.471   0.000   0.005   0.000 -11.333  -0.476   0.000
 -0.471 -11.372  -0.000  -0.000   0.005  -0.476 -11.711  -0.000
  0.000  -0.000 -10.626   0.000   0.000   0.000  -0.000 -10.959
  0.005  -0.000   0.000 -11.372   0.471   0.005  -0.000   0.000
  0.000   0.005   0.000   0.471 -10.998   0.000   0.005   0.000
-11.333  -0.476   0.000   0.005   0.000 -11.620  -0.484   0.000
 -0.476 -11.711  -0.000  -0.000   0.005  -0.484 -12.004  -0.000
  0.000  -0.000 -10.959   0.000   0.000   0.000  -0.000 -11.239
  0.005  -0.000   0.000 -11.711   0.476   0.005  -0.000   0.000
  0.000   0.005   0.000   0.476 -11.333   0.000   0.005   0.000
  0.000   0.000  -0.000  -0.000   0.000   0.000   0.000  -0.000
  0.000   0.000  -0.001  -0.000   0.000   0.000   0.000  -0.001
  0.000   0.000   0.000  -0.000  -0.001   0.000   0.000   0.000
 -0.000  -0.000   0.000   0.000  -0.000  -0.000  -0.000   0.000
 -0.001  -0.000  -0.000   0.000  -0.000  -0.001  -0.000  -0.000
  0.000   0.000   0.000  -0.000  -0.001   0.000   0.000   0.000
 -0.000  -0.000   0.000   0.000  -0.000  -0.000  -0.000   0.000
 -0.001  -0.000  -0.000   0.000  -0.000  -0.001  -0.000  -0.000
 total augmentation occupancy for first ion, spin component:           1
  7.015   2.281  -0.000  -0.019  -0.000  -4.837  -2.220   0.000   0.019  -0.000  -0.000   0.000   0.004   0.000  -0.107  -0.000
  2.281   8.662   0.000   0.000  -0.019  -2.221  -6.428  -0.000  -0.000   0.019  -0.000   0.000   0.005   0.000  -0.002   0.000
 -0.000   0.000   5.299   0.000  -0.000  -0.000  -0.000  -3.160  -0.000   0.000   0.029  -0.003   0.000  -0.002   0.000  -0.000
 -0.019   0.000   0.000   8.662  -2.281   0.019   0.000  -0.000  -6.428   2.221   0.000  -0.000   0.002   0.000   0.005  -0.000
  0.000  -0.019  -0.000  -2.281   7.015   0.000   0.019   0.000   2.220  -4.837  -0.000   0.000  -0.107   0.000  -0.004   0.007
 -4.837  -2.221  -0.000   0.019   0.000   3.898   2.290  -0.000  -0.019   0.000   0.000   0.000  -0.005  -0.000   0.116   0.000
 -2.220  -6.428  -0.000   0.000   0.019   2.290   5.537   0.000   0.000  -0.019   0.000   0.000  -0.006   0.000  -0.003   0.000
  0.000  -0.000  -3.160  -0.000   0.000  -0.000   0.000   2.160   0.000  -0.000  -0.029   0.004  -0.000   0.002  -0.000   0.000
  0.019  -0.000  -0.000  -6.428   2.220  -0.019   0.000   0.000   5.537  -2.290  -0.000  -0.000   0.003  -0.000  -0.006  -0.000
 -0.000   0.019   0.000   2.221  -4.837   0.000  -0.019  -0.000  -2.290   3.898   0.000  -0.000   0.116  -0.000   0.005  -0.010
 -0.000  -0.000   0.029   0.000  -0.000   0.000   0.000  -0.029  -0.000   0.000   1.510  -0.146   0.000  -0.002   0.000   0.000
  0.000   0.000  -0.003   0.000   0.000   0.000   0.000   0.004  -0.000  -0.000  -0.146   0.031   0.000   0.000   0.000   0.000
  0.004   0.005   0.000   0.002  -0.107  -0.005  -0.006  -0.000   0.003   0.116  -0.000  -0.000   0.227   0.000   0.000  -0.020
  0.000   0.000  -0.002   0.000   0.000  -0.000  -0.000   0.002   0.000  -0.000  -0.002   0.000   0.000   0.225   0.000   0.000
 -0.107  -0.002   0.000   0.005  -0.004   0.116  -0.003  -0.000  -0.006   0.005   0.000   0.000   0.000  -0.000   0.227   0.000
 -0.000   0.000  -0.000  -0.000   0.007   0.000   0.000   0.000  -0.000  -0.010   0.000   0.000  -0.020   0.000   0.000   0.003
 -0.000   0.000   0.000   0.000  -0.000   0.000   0.000  -0.000  -0.000   0.000   0.000  -0.000  -0.000  -0.020  -0.000   0.000
  0.007   0.000  -0.000   0.000   0.000  -0.010   0.000   0.000   0.000  -0.000   0.000   0.000  -0.000  -0.000  -0.020   0.000
 total augmentation occupancy for first ion, spin component:           2
  6.668   1.995  -0.000  -0.017   0.000  -4.310  -1.836  -0.000   0.015   0.000  -0.000  -0.000   0.002   0.000  -0.048   0.000
  1.995   8.128   0.000   0.000  -0.017  -1.836  -5.659  -0.000   0.000   0.015   0.000   0.000   0.003   0.000   0.006   0.000
 -0.000   0.000   5.167   0.000  -0.000   0.000  -0.000  -2.928  -0.000   0.000   0.005   0.001   0.000  -0.001   0.000   0.000
 -0.017  -0.000   0.000   8.128  -1.995   0.015  -0.000  -0.000  -5.659   1.836  -0.000   0.000  -0.006   0.000   0.003   0.001
  0.000  -0.017  -0.000  -1.995   6.668  -0.000   0.015   0.000   1.836  -4.310  -0.000  -0.000  -0.048   0.000  -0.002  -0.003
 -4.310  -1.836   0.000   0.015  -0.000   2.886   1.561  -0.000  -0.013  -0.000   0.000   0.000  -0.002  -0.000   0.033  -0.000
 -1.836  -5.659  -0.000  -0.000   0.015   1.561   4.031   0.000   0.000  -0.013   0.000   0.000  -0.002   0.000  -0.000  -0.000
 -0.000  -0.000  -2.928  -0.000   0.000  -0.000   0.000   1.714   0.000  -0.000  -0.003  -0.002  -0.000   0.001  -0.000  -0.000
  0.015   0.000  -0.000  -5.659   1.836  -0.013   0.000   0.000   4.031  -1.561   0.000  -0.000   0.000  -0.000  -0.002  -0.000
  0.000   0.015   0.000   1.836  -4.310  -0.000  -0.013  -0.000  -1.561   2.886   0.000   0.000   0.033  -0.000   0.002   0.003
 -0.000   0.000   0.005   0.000  -0.000   0.000  -0.000  -0.003   0.000   0.000  -0.248   0.104   0.000   0.000   0.000   0.000
 -0.000   0.000   0.001   0.000  -0.000   0.000   0.000  -0.002  -0.000   0.000   0.104  -0.012   0.000  -0.000  -0.000   0.000
  0.002   0.003   0.000  -0.006  -0.048  -0.002  -0.002  -0.000   0.000   0.033   0.000   0.000  -0.002   0.000   0.000   0.006
  0.000   0.000  -0.001   0.000   0.000  -0.000  -0.000   0.001  -0.000  -0.000   0.000  -0.000  -0.000  -0.004   0.000  -0.000
 -0.048   0.006   0.000   0.003  -0.002   0.033  -0.000  -0.000  -0.002   0.002   0.000  -0.000  -0.000  -0.000  -0.002   0.000
  0.000   0.000   0.000   0.001  -0.003  -0.000  -0.000  -0.000  -0.000   0.003   0.000   0.000   0.006   0.000   0.000  -0.001
 -0.000   0.000   0.000  -0.000  -0.000   0.000  -0.000  -0.000  -0.000   0.000  -0.000   0.000   0.000   0.006  -0.000   0.000
 -0.003  -0.001   0.000   0.000  -0.000   0.003   0.000  -0.000  -0.000   0.000   0.000  -0.000  -0.000  -0.000   0.006  -0.000


------------------------ aborting loop because EDIFF is reached ----------------------------------------


    CHARGE:  cpu time      1.0163: real time      1.0460
    FORLOC:  cpu time      0.0052: real time      0.0055
    FORNL :  cpu time      2.3263: real time      2.3688
    STRESS:  cpu time      9.1197: real time      9.1992
    FORCOR:  cpu time      0.1522: real time      0.1988
    FORHAR:  cpu time      0.0189: real time      0.0208
    MIXING:  cpu time      0.0140: real time      0.0457
    OFIELD:  cpu time      0.0007: real time      0.0067

  FORCE on cell =-STRESS in cart. coord.  units (eV):
  Direction    XX          YY          ZZ          XY          YZ          ZX
  --------------------------------------------------------------------------------------
  Alpha Z    21.49063    21.49063    21.49063
  Ewald   15131.86129 15131.85483-16983.66575     0.00163     0.00140    -0.00316
  Hartree 15878.98601 15878.98617-15285.97230    -0.00123    -0.00007     0.00035
  E(xc)    -236.19250  -236.19250  -236.49055     0.00000    -0.00001     0.00001
  Local  -32041.77456-32041.76992 31235.70172     0.00072    -0.00070     0.00164
  n-local   453.16990   453.48961   452.81939    -0.26407     0.07682    -0.03986
  augment   -35.01571   -35.01534   -35.08346    -0.00025    -0.00011     0.00016
  Kinetic   827.76460   827.16345   831.12773     0.20536    -0.13834     0.06323
  Fock        0.00000     0.00000     0.00000     0.00000     0.00000     0.00000
  -------------------------------------------------------------------------------------
  Total       0.14829     0.14829    -0.07260     0.00000     0.00000     0.00000
  in kB       0.24881     0.24881    -0.12181     0.00000     0.00000     0.00000
  external pressure =        0.13 kB  Pullay stress =        0.00 kB


 VOLUME and BASIS-vectors are now :
 -----------------------------------------------------------------------------
  energy-cutoff  :      500.00
  volume of cell :      954.89
      direct lattice vectors                 reciprocal lattice vectors
     6.181820000  0.000000000  0.000000000     0.161764658  0.093394924  0.000000000
    -3.090910000  5.353610000  0.000000000     0.000000000  0.186789848  0.000000000
     0.000000000  0.000000000 28.852900000     0.000000000  0.000000000  0.034658561

  length of vectors
     6.181820000  6.181817262 28.852900000     0.186789766  0.186789848  0.034658561


 FORCES acting on ions
    electron-ion (+dipol)            ewald-force                    non-local-force                 convergence-correction
 -----------------------------------------------------------------------------------------------
   -.347E-03 0.104E-03 0.168E+01   -.552E-03 0.156E-02 -.171E+01   0.173E-17 0.000E+00 0.444E-01   -.940E-07 0.984E-09 -.281E-06
   0.133E-03 0.208E-04 -.344E+01   -.108E-02 -.610E-03 0.344E+01   -.173E-17 0.000E+00 -.809E-02   -.148E-06 0.132E-06 0.219E-06
   -.869E+02 -.307E+00 -.564E+03   0.885E+02 0.321E+00 0.566E+03   -.158E+01 -.182E-01 -.255E+01   0.165E-04 -.138E-04 0.882E-04
   0.437E+02 -.751E+02 -.564E+03   -.445E+02 0.765E+02 0.566E+03   0.806E+00 -.136E+01 -.255E+01   0.368E-05 0.214E-04 0.881E-04
   0.432E+02 0.755E+02 -.564E+03   -.440E+02 -.768E+02 0.566E+03   0.774E+00 0.138E+01 -.255E+01   -.202E-04 -.758E-05 0.882E-04
   -.432E+02 -.753E+02 0.564E+03   0.440E+02 0.766E+02 -.567E+03   -.760E+00 -.136E+01 0.255E+01   -.397E-05 0.215E-04 -.877E-04
   0.868E+02 0.235E+00 0.564E+03   -.884E+02 -.261E+00 -.567E+03   0.156E+01 0.204E-01 0.255E+01   -.167E-04 -.144E-04 -.876E-04
   -.436E+02 0.750E+02 0.564E+03   0.444E+02 -.764E+02 -.567E+03   -.796E+00 0.134E+01 0.255E+01   0.206E-04 -.708E-05 -.877E-04
 -----------------------------------------------------------------------------------------------
   0.639E-01 -.367E-01 -.505E-01   0.284E-13 -.284E-13 0.114E-12   -.222E-15 0.222E-15 0.506E-01   -.316E-06 0.172E-06 0.153E-05
 
 
 POSITION                                       TOTAL-FORCE (eV/Angst)
 -----------------------------------------------------------------------------------
      3.09091      5.35361      6.52305         0.000000      0.000000      0.016177
      3.09092      1.78454      6.53443        -0.000000      0.000000     -0.003762
      3.92536      3.57097      7.90701         0.003293     -0.003716      0.000450
      1.12659      1.61397      7.90701         0.001571      0.004710      0.000450
      4.22078      0.16867      7.90702        -0.004864     -0.000994      0.000450
      5.04806      1.60958      5.14812         0.012437      0.010380     -0.004588
      2.26383      3.56699      5.14813        -0.015208      0.005581     -0.004588
      1.96078      0.17708      5.14811         0.002771     -0.015961     -0.004588
 -----------------------------------------------------------------------------------
    total drift:                                0.063903     -0.036710      0.000073


--------------------------------------------------------------------------------------------------------



  FREE ENERGIE OF THE ION-ELECTRON SYSTEM (eV)
  ---------------------------------------------------
  free  energy   TOTEN  =       -30.21108683 eV

  energy  without entropy=      -30.21108683  energy(sigma->0) =      -30.21108683
 


--------------------------------------------------------------------------------------------------------


    POTLOK:  cpu time      0.6109: real time      0.6510


--------------------------------------------------------------------------------------------------------


     LOOP+:  cpu time    679.6608: real time    703.4858
    4ORBIT:  cpu time      0.0000: real time      0.0000

 total amount of memory used by VASP MPI-rank0   393134. kBytes
=======================================================================

   base      :      30000. kBytes
   nonl-proj :     241571. kBytes
   fftplans  :      19623. kBytes
   grid      :      48494. kBytes
   one-center:        248. kBytes
   wavefun   :      53198. kBytes
 
  
  
 General timing and accounting informations for this job:
 ========================================================
  
                  Total CPU time used (sec):      690.037
                            User time (sec):      661.127
                          System time (sec):       28.910
                         Elapsed time (sec):      715.180
  
                   Maximum memory used (kb):      608080.
                   Average memory used (kb):          N/A
  
                          Minor page faults:       304130
                          Major page faults:        67384
                 Voluntary context switches:        98468
